
     Program PWSCF v.7.0 starts on 17Oct2022 at 15:49:45 

     This program is part of the open-source Quantum ESPRESSO suite
     for quantum simulation of materials; please cite
         "P. Giannozzi et al., J. Phys.:Condens. Matter 21 395502 (2009);
         "P. Giannozzi et al., J. Phys.:Condens. Matter 29 465901 (2017);
         "P. Giannozzi et al., J. Chem. Phys. 152 154105 (2020);
          URL http://www.quantum-espresso.org", 
     in publications or presentations arising from this work. More details at
     http://www.quantum-espresso.org/quote

     Parallel version (MPI), running on    32 processors

     MPI processes distributed on     1 nodes
     R & G space division:  proc/nbgrp/npool/nimage =      32
     250270 MiB available memory on the printing compute node when the environment starts

     Waiting for input...
     Reading input from standard input

     Current dimensions of program PWSCF are:
     Max number of different atomic species (ntypx) = 10
     Max number of k-points (npk) =  40000
     Max angular momentum in pseudopotentials (lmaxx) =  4

     IMPORTANT: XC functional enforced from input :
     Exchange-correlation= PBE
                           (   1   4   3   4   0   0   0)
     Any further DFT definition will be discarded
     Please, verify this is what you really want


     gamma-point specific algorithms are used
     Found identity + ( -0.2500 -0.2500 -0.5000) symmetry
     This is a supercell, fractional translations are disabled

     Subspace diagonalization in iterative solution of the eigenvalue problem:
     a serial algorithm will be used


     Parallelization info
     --------------------
     sticks:   dense  smooth     PW     G-vecs:    dense   smooth      PW
     Min         400     400     99                34304    34304    4280
     Max         402     402    102                34314    34314    4286
     Sum       12849   12849   3205              1097911  1097911  137059

     Using Slab Decomposition



     bravais-lattice index     =            8
     lattice parameter (alat)  =      15.7622  a.u.
     unit-cell volume          =    3916.0705 (a.u.)^3
     number of atoms/cell      =           64
     number of atomic types    =            3
     number of electrons       =       768.00
     number of Kohn-Sham states=          448
     kinetic-energy cutoff     =     162.7140  Ry
     charge density cutoff     =     650.8560  Ry
     scf convergence threshold =      1.0E-08
     mixing beta               =       0.2500
     number of iterations used =            8  plain     mixing
     Exchange-correlation= PBE
                           (   1   4   3   4   0   0   0)

     celldm(1)=  15.762200  celldm(2)=   1.000000  celldm(3)=   1.000000
     celldm(4)=   0.000000  celldm(5)=   0.000000  celldm(6)=   0.000000

     crystal axes: (cart. coord. in units of alat)
               a(1) = (   1.000000   0.000000   0.000000 )  
               a(2) = (   0.000000   1.000000   0.000000 )  
               a(3) = (   0.000000   0.000000   1.000000 )  

     reciprocal axes: (cart. coord. in units 2 pi/alat)
               b(1) = (  1.000000  0.000000  0.000000 )  
               b(2) = (  0.000000  1.000000  0.000000 )  
               b(3) = (  0.000000  0.000000  1.000000 )  


     PseudoPot. # 1 for O  read from file:
     /home/emil/Pseudo/nc-sr-04_pbe_stringent/O.upf
     MD5 check sum: 9db02a5ece9d56b81b65a73f8163743d
     Pseudo is Norm-conserving + core correction, Zval =  6.0
     Generated using ONCVPSP code by D. R. Hamann
     Using radial grid of  936 points,  5 beta functions with: 
                l(1) =   0
                l(2) =   0
                l(3) =   1
                l(4) =   1
                l(5) =   2

     PseudoPot. # 2 for Ni read from file:
     /home/emil/Pseudo/nc-sr-04_pbe_stringent/Ni.upf
     MD5 check sum: ff72d48937b3d9f5815e777d24fa1439
     Pseudo is Norm-conserving + core correction, Zval = 18.0
     Generated using ONCVPSP code by D. R. Hamann
     Using radial grid of 1372 points,  6 beta functions with: 
                l(1) =   0
                l(2) =   0
                l(3) =   1
                l(4) =   1
                l(5) =   2
                l(6) =   2

     PseudoPot. # 3 for Ni read from file:
     /home/emil/Pseudo/nc-sr-04_pbe_stringent/Ni.upf
     MD5 check sum: ff72d48937b3d9f5815e777d24fa1439
     Pseudo is Norm-conserving + core correction, Zval = 18.0
     Generated using ONCVPSP code by D. R. Hamann
     Using radial grid of 1372 points,  6 beta functions with: 
                l(1) =   0
                l(2) =   0
                l(3) =   1
                l(4) =   1
                l(5) =   2
                l(6) =   2

     atomic species   valence    mass     pseudopotential
        O              6.00     1.00000     O ( 1.00)
        Ni            18.00     1.00000     Ni( 1.00)
        Ni1           18.00     1.00000     Ni( 1.00)

     Starting magnetic structure 
     atomic species   magnetization
        O            0.000
        Ni           1.000
        Ni1         -1.000


     Simplified LDA+U calculation (l_max = 2) with parameters (eV):
     atomic species    L          U    alpha       J0     beta
        Ni             2     6.5000   0.0000   0.0000   0.0000
        Ni1            2     6.5000   0.0000   0.0000   0.0000



     12 Sym. Ops., with inversion, found


                                    s                        frac. trans.

      isym =  1     identity                                     

 cryst.   s( 1) = (     1          0          0      )
                  (     0          1          0      )
                  (     0          0          1      )

 cart.    s( 1) = (  1.0000000  0.0000000  0.0000000 )
                  (  0.0000000  1.0000000  0.0000000 )
                  (  0.0000000  0.0000000  1.0000000 )


      isym =  2     180 deg rotation - cart. axis [1,-1,0]       

 cryst.   s( 2) = (     0         -1          0      )
                  (    -1          0          0      )
                  (     0          0         -1      )

 cart.    s( 2) = (  0.0000000 -1.0000000  0.0000000 )
                  ( -1.0000000  0.0000000  0.0000000 )
                  (  0.0000000  0.0000000 -1.0000000 )


      isym =  3     180 deg rotation - cart. axis [-1,0,1]       

 cryst.   s( 3) = (     0          0         -1      )
                  (     0         -1          0      )
                  (    -1          0          0      )

 cart.    s( 3) = (  0.0000000  0.0000000 -1.0000000 )
                  (  0.0000000 -1.0000000  0.0000000 )
                  ( -1.0000000  0.0000000  0.0000000 )


      isym =  4     180 deg rotation - cart. axis [0,1,-1]       

 cryst.   s( 4) = (    -1          0          0      )
                  (     0          0         -1      )
                  (     0         -1          0      )

 cart.    s( 4) = ( -1.0000000  0.0000000  0.0000000 )
                  (  0.0000000  0.0000000 -1.0000000 )
                  (  0.0000000 -1.0000000  0.0000000 )


      isym =  5     120 deg rotation - cart. axis [-1,-1,-1]     

 cryst.   s( 5) = (     0          0          1      )
                  (     1          0          0      )
                  (     0          1          0      )

 cart.    s( 5) = (  0.0000000  1.0000000  0.0000000 )
                  (  0.0000000  0.0000000  1.0000000 )
                  (  1.0000000  0.0000000  0.0000000 )


      isym =  6     120 deg rotation - cart. axis [1,1,1]        

 cryst.   s( 6) = (     0          1          0      )
                  (     0          0          1      )
                  (     1          0          0      )

 cart.    s( 6) = (  0.0000000  0.0000000  1.0000000 )
                  (  1.0000000  0.0000000  0.0000000 )
                  (  0.0000000  1.0000000  0.0000000 )


      isym =  7     inversion                                    

 cryst.   s( 7) = (    -1          0          0      )
                  (     0         -1          0      )
                  (     0          0         -1      )

 cart.    s( 7) = ( -1.0000000  0.0000000  0.0000000 )
                  (  0.0000000 -1.0000000  0.0000000 )
                  (  0.0000000  0.0000000 -1.0000000 )


      isym =  8     inv. 180 deg rotation - cart. axis [1,-1,0]  

 cryst.   s( 8) = (     0          1          0      )
                  (     1          0          0      )
                  (     0          0          1      )

 cart.    s( 8) = (  0.0000000  1.0000000  0.0000000 )
                  (  1.0000000  0.0000000  0.0000000 )
                  (  0.0000000  0.0000000  1.0000000 )


      isym =  9     inv. 180 deg rotation - cart. axis [-1,0,1]  

 cryst.   s( 9) = (     0          0          1      )
                  (     0          1          0      )
                  (     1          0          0      )

 cart.    s( 9) = (  0.0000000  0.0000000  1.0000000 )
                  (  0.0000000  1.0000000  0.0000000 )
                  (  1.0000000  0.0000000  0.0000000 )


      isym = 10     inv. 180 deg rotation - cart. axis [0,1,-1]  

 cryst.   s(10) = (     1          0          0      )
                  (     0          0          1      )
                  (     0          1          0      )

 cart.    s(10) = (  1.0000000  0.0000000  0.0000000 )
                  (  0.0000000  0.0000000  1.0000000 )
                  (  0.0000000  1.0000000  0.0000000 )


      isym = 11     inv. 120 deg rotation - cart. axis [-1,-1,-1]

 cryst.   s(11) = (     0          0         -1      )
                  (    -1          0          0      )
                  (     0         -1          0      )

 cart.    s(11) = (  0.0000000 -1.0000000  0.0000000 )
                  (  0.0000000  0.0000000 -1.0000000 )
                  ( -1.0000000  0.0000000  0.0000000 )


      isym = 12     inv. 120 deg rotation - cart. axis [1,1,1]   

 cryst.   s(12) = (     0         -1          0      )
                  (     0          0         -1      )
                  (    -1          0          0      )

 cart.    s(12) = (  0.0000000  0.0000000 -1.0000000 )
                  ( -1.0000000  0.0000000  0.0000000 )
                  (  0.0000000 -1.0000000  0.0000000 )


     point group D_3d (-3m) 
     there are  6 classes
     the character table:

       E     2C3   3C2'  i     2S6   3s_d 
A_1g   1.00  1.00  1.00  1.00  1.00  1.00
A_2g   1.00  1.00 -1.00  1.00  1.00 -1.00
E_g    2.00 -1.00  0.00  2.00 -1.00  0.00
A_1u   1.00  1.00  1.00 -1.00 -1.00 -1.00
A_2u   1.00  1.00 -1.00 -1.00 -1.00  1.00
E_u    2.00 -1.00  0.00 -2.00  1.00  0.00

     the symmetry operations in each class and the name of the first element:

     E        1
          identity                                               
     2C3      5    6
          120 deg rotation - cart. axis [-1,-1,-1]               
     3C2'     2    4    3
          180 deg rotation - cart. axis [1,-1,0]                 
     i        7
          inversion                                              
     2S6     11   12
          inv. 120 deg rotation - cart. axis [-1,-1,-1]          
     3s_d     8   10    9
          inv. 180 deg rotation - cart. axis [1,-1,0]            

   Cartesian axes

     site n.     atom                  positions (alat units)
         1           O   tau(   1) = (   0.2500000   0.2500000   0.2500000  )
         2           O   tau(   2) = (   0.0000000   0.0000000   0.7500000  )
         3           O   tau(   3) = (   0.2500000   0.0000000   0.5000000  )
         4           O   tau(   4) = (   0.5000000   0.0000000   0.2500000  )
         5           O   tau(   5) = (   0.0000000   0.2500000   0.5000000  )
         6           O   tau(   6) = (   0.5000000   0.2500000   0.0000000  )
         7           O   tau(   7) = (   0.0000000   0.5000000   0.2500000  )
         8           O   tau(   8) = (   0.2500000   0.5000000   0.0000000  )
         9           O   tau(   9) = (   0.7500000   0.2500000   0.7500000  )
        10           O   tau(  10) = (   0.5000000   0.5000000   0.7500000  )
        11           O   tau(  11) = (   0.7500000   0.5000000   0.5000000  )
        12           O   tau(  12) = (   0.2500000   0.7500000   0.7500000  )
        13           O   tau(  13) = (   0.5000000   0.7500000   0.5000000  )
        14           O   tau(  14) = (   0.7500000   0.7500000   0.2500000  )
        15           O   tau(  15) = (   0.7500000   0.0000000   0.0000000  )
        16           O   tau(  16) = (   0.0000000   0.7500000   0.0000000  )
        17           O   tau(  17) = (   0.0000000   0.0000000   0.2500000  )
        18           O   tau(  18) = (   0.2500000   0.0000000   0.0000000  )
        19           O   tau(  19) = (   0.0000000   0.2500000   0.0000000  )
        20           O   tau(  20) = (   0.2500000   0.2500000   0.7500000  )
        21           O   tau(  21) = (   0.5000000   0.2500000   0.5000000  )
        22           O   tau(  22) = (   0.7500000   0.2500000   0.2500000  )
        23           O   tau(  23) = (   0.2500000   0.5000000   0.5000000  )
        24           O   tau(  24) = (   0.5000000   0.5000000   0.2500000  )
        25           O   tau(  25) = (   0.7500000   0.5000000   0.0000000  )
        26           O   tau(  26) = (   0.2500000   0.7500000   0.2500000  )
        27           O   tau(  27) = (   0.5000000   0.7500000   0.0000000  )
        28           O   tau(  28) = (   0.5000000   0.0000000   0.7500000  )
        29           O   tau(  29) = (   0.7500000   0.0000000   0.5000000  )
        30           O   tau(  30) = (   0.0000000   0.5000000   0.7500000  )
        31           O   tau(  31) = (   0.0000000   0.7500000   0.5000000  )
        32           O   tau(  32) = (   0.7500000   0.7500000   0.7500000  )
        33           Ni  tau(  33) = (   0.0000000   0.0000000   0.0000000  )
        34           Ni  tau(  34) = (   0.2500000   0.0000000   0.7500000  )
        35           Ni  tau(  35) = (   0.5000000   0.0000000   0.5000000  )
        36           Ni  tau(  36) = (   0.0000000   0.2500000   0.7500000  )
        37           Ni  tau(  37) = (   0.2500000   0.2500000   0.5000000  )
        38           Ni  tau(  38) = (   0.5000000   0.2500000   0.2500000  )
        39           Ni  tau(  39) = (   0.0000000   0.5000000   0.5000000  )
        40           Ni  tau(  40) = (   0.2500000   0.5000000   0.2500000  )
        41           Ni  tau(  41) = (   0.5000000   0.5000000   0.0000000  )
        42           Ni  tau(  42) = (   0.7500000   0.0000000   0.2500000  )
        43           Ni  tau(  43) = (   0.7500000   0.2500000   0.0000000  )
        44           Ni  tau(  44) = (   0.0000000   0.7500000   0.2500000  )
        45           Ni  tau(  45) = (   0.2500000   0.7500000   0.0000000  )
        46           Ni  tau(  46) = (   0.7500000   0.5000000   0.7500000  )
        47           Ni  tau(  47) = (   0.5000000   0.7500000   0.7500000  )
        48           Ni  tau(  48) = (   0.7500000   0.7500000   0.5000000  )
        49           Ni1 tau(  49) = (   0.2500000   0.2500000   0.0000000  )
        50           Ni1 tau(  50) = (   0.0000000   0.0000000   0.5000000  )
        51           Ni1 tau(  51) = (   0.2500000   0.0000000   0.2500000  )
        52           Ni1 tau(  52) = (   0.5000000   0.0000000   0.0000000  )
        53           Ni1 tau(  53) = (   0.0000000   0.2500000   0.2500000  )
        54           Ni1 tau(  54) = (   0.0000000   0.5000000   0.0000000  )
        55           Ni1 tau(  55) = (   0.5000000   0.2500000   0.7500000  )
        56           Ni1 tau(  56) = (   0.7500000   0.2500000   0.5000000  )
        57           Ni1 tau(  57) = (   0.2500000   0.5000000   0.7500000  )
        58           Ni1 tau(  58) = (   0.5000000   0.5000000   0.5000000  )
        59           Ni1 tau(  59) = (   0.7500000   0.5000000   0.2500000  )
        60           Ni1 tau(  60) = (   0.2500000   0.7500000   0.5000000  )
        61           Ni1 tau(  61) = (   0.5000000   0.7500000   0.2500000  )
        62           Ni1 tau(  62) = (   0.7500000   0.7500000   0.0000000  )
        63           Ni1 tau(  63) = (   0.7500000   0.0000000   0.7500000  )
        64           Ni1 tau(  64) = (   0.0000000   0.7500000   0.7500000  )

   Crystallographic axes

     site n.     atom                  positions (cryst. coord.)
         1           O   tau(   1) = (  0.2500000  0.2500000  0.2500000  )
         2           O   tau(   2) = (  0.0000000  0.0000000  0.7500000  )
         3           O   tau(   3) = (  0.2500000  0.0000000  0.5000000  )
         4           O   tau(   4) = (  0.5000000  0.0000000  0.2500000  )
         5           O   tau(   5) = (  0.0000000  0.2500000  0.5000000  )
         6           O   tau(   6) = (  0.5000000  0.2500000  0.0000000  )
         7           O   tau(   7) = (  0.0000000  0.5000000  0.2500000  )
         8           O   tau(   8) = (  0.2500000  0.5000000  0.0000000  )
         9           O   tau(   9) = (  0.7500000  0.2500000  0.7500000  )
        10           O   tau(  10) = (  0.5000000  0.5000000  0.7500000  )
        11           O   tau(  11) = (  0.7500000  0.5000000  0.5000000  )
        12           O   tau(  12) = (  0.2500000  0.7500000  0.7500000  )
        13           O   tau(  13) = (  0.5000000  0.7500000  0.5000000  )
        14           O   tau(  14) = (  0.7500000  0.7500000  0.2500000  )
        15           O   tau(  15) = (  0.7500000  0.0000000  0.0000000  )
        16           O   tau(  16) = (  0.0000000  0.7500000  0.0000000  )
        17           O   tau(  17) = (  0.0000000  0.0000000  0.2500000  )
        18           O   tau(  18) = (  0.2500000  0.0000000  0.0000000  )
        19           O   tau(  19) = (  0.0000000  0.2500000  0.0000000  )
        20           O   tau(  20) = (  0.2500000  0.2500000  0.7500000  )
        21           O   tau(  21) = (  0.5000000  0.2500000  0.5000000  )
        22           O   tau(  22) = (  0.7500000  0.2500000  0.2500000  )
        23           O   tau(  23) = (  0.2500000  0.5000000  0.5000000  )
        24           O   tau(  24) = (  0.5000000  0.5000000  0.2500000  )
        25           O   tau(  25) = (  0.7500000  0.5000000  0.0000000  )
        26           O   tau(  26) = (  0.2500000  0.7500000  0.2500000  )
        27           O   tau(  27) = (  0.5000000  0.7500000  0.0000000  )
        28           O   tau(  28) = (  0.5000000  0.0000000  0.7500000  )
        29           O   tau(  29) = (  0.7500000  0.0000000  0.5000000  )
        30           O   tau(  30) = (  0.0000000  0.5000000  0.7500000  )
        31           O   tau(  31) = (  0.0000000  0.7500000  0.5000000  )
        32           O   tau(  32) = (  0.7500000  0.7500000  0.7500000  )
        33           Ni  tau(  33) = (  0.0000000  0.0000000  0.0000000  )
        34           Ni  tau(  34) = (  0.2500000  0.0000000  0.7500000  )
        35           Ni  tau(  35) = (  0.5000000  0.0000000  0.5000000  )
        36           Ni  tau(  36) = (  0.0000000  0.2500000  0.7500000  )
        37           Ni  tau(  37) = (  0.2500000  0.2500000  0.5000000  )
        38           Ni  tau(  38) = (  0.5000000  0.2500000  0.2500000  )
        39           Ni  tau(  39) = (  0.0000000  0.5000000  0.5000000  )
        40           Ni  tau(  40) = (  0.2500000  0.5000000  0.2500000  )
        41           Ni  tau(  41) = (  0.5000000  0.5000000  0.0000000  )
        42           Ni  tau(  42) = (  0.7500000  0.0000000  0.2500000  )
        43           Ni  tau(  43) = (  0.7500000  0.2500000  0.0000000  )
        44           Ni  tau(  44) = (  0.0000000  0.7500000  0.2500000  )
        45           Ni  tau(  45) = (  0.2500000  0.7500000  0.0000000  )
        46           Ni  tau(  46) = (  0.7500000  0.5000000  0.7500000  )
        47           Ni  tau(  47) = (  0.5000000  0.7500000  0.7500000  )
        48           Ni  tau(  48) = (  0.7500000  0.7500000  0.5000000  )
        49           Ni1 tau(  49) = (  0.2500000  0.2500000  0.0000000  )
        50           Ni1 tau(  50) = (  0.0000000  0.0000000  0.5000000  )
        51           Ni1 tau(  51) = (  0.2500000  0.0000000  0.2500000  )
        52           Ni1 tau(  52) = (  0.5000000  0.0000000  0.0000000  )
        53           Ni1 tau(  53) = (  0.0000000  0.2500000  0.2500000  )
        54           Ni1 tau(  54) = (  0.0000000  0.5000000  0.0000000  )
        55           Ni1 tau(  55) = (  0.5000000  0.2500000  0.7500000  )
        56           Ni1 tau(  56) = (  0.7500000  0.2500000  0.5000000  )
        57           Ni1 tau(  57) = (  0.2500000  0.5000000  0.7500000  )
        58           Ni1 tau(  58) = (  0.5000000  0.5000000  0.5000000  )
        59           Ni1 tau(  59) = (  0.7500000  0.5000000  0.2500000  )
        60           Ni1 tau(  60) = (  0.2500000  0.7500000  0.5000000  )
        61           Ni1 tau(  61) = (  0.5000000  0.7500000  0.2500000  )
        62           Ni1 tau(  62) = (  0.7500000  0.7500000  0.0000000  )
        63           Ni1 tau(  63) = (  0.7500000  0.0000000  0.7500000  )
        64           Ni1 tau(  64) = (  0.0000000  0.7500000  0.7500000  )

     number of k points=     1  Marzari-Vanderbilt smearing, width (Ry)=  0.0002
                       cart. coord. in units 2pi/alat
        k(    1) = (   0.0000000   0.0000000   0.0000000), wk =   1.0000000

                       cryst. coord.
        k(    1) = (   0.0000000   0.0000000   0.0000000), wk =   1.0000000

     Dense  grid:   548956 G-vectors     FFT dimensions: ( 128, 128, 128)

     Dynamical RAM for                 wfc:      14.66 MB

     Dynamical RAM for     wfc (w. buffer):      43.97 MB

     Dynamical RAM for             U proj.:       5.23 MB

     Dynamical RAM for  U proj. (w. buff.):      15.70 MB

     Dynamical RAM for           str. fact:       0.79 MB

     Dynamical RAM for           local pot:       0.00 MB

     Dynamical RAM for          nlocal pot:      32.45 MB

     Dynamical RAM for                qrad:       6.14 MB

     Dynamical RAM for          rho,v,vnew:       4.57 MB

     Dynamical RAM for               rhoin:       1.52 MB

     Dynamical RAM for            rho*nmix:       8.38 MB

     Dynamical RAM for           G-vectors:       1.11 MB

     Dynamical RAM for          h,s,v(r/c):      18.38 MB

     Dynamical RAM for          <psi|beta>:       3.39 MB

     Dynamical RAM for                 psi:      29.31 MB

     Dynamical RAM for                hpsi:      29.31 MB

     Dynamical RAM for      wfcinit/wfcrot:      33.91 MB

     Estimated static dynamical RAM per process >     110.30 MB

     Estimated max dynamical RAM per process >     199.07 MB

     Estimated total dynamical RAM >       6.22 GB
     Generating pointlists ...
     new r_m :   0.1031 (alat units)  1.6255 (a.u.) for type    1
     new r_m :   0.1031 (alat units)  1.6255 (a.u.) for type    2
     new r_m :   0.1031 (alat units)  1.6255 (a.u.) for type    3

     Initial potential from superposition of free atoms

     starting charge     767.9928, renormalised to     768.0000

     HUBBARD ENERGY =    9.1726  (Ry)
     Number of +U iterations with fixed ns =  0
     Starting occupations:

     Hubbard parameters (eV):
     U(  2) =  6.5000
     U(  3) =  6.5000

     ================= HUBBARD OCCUPATIONS ================
     --------------------- ATOM   33 ----------------------
     Tr[ns] (up, down, total) =   5.00000  3.00000  8.00000
     Atomic magnetic moment =   2.00000
     SPIN  1
     eigenvalues:
       1.000  1.000  1.000  1.000  1.000
     eigenvectors (columns):
       1.000  0.000  0.000  0.000  0.000
       0.000  1.000  0.000  0.000  0.000
       0.000  0.000  1.000  0.000  0.000
       0.000  0.000  0.000  1.000  0.000
       0.000  0.000  0.000  0.000  1.000
     occupation matrix ns (before diag.):
       1.000  0.000  0.000  0.000  0.000
       0.000  1.000  0.000  0.000  0.000
       0.000  0.000  1.000  0.000  0.000
       0.000  0.000  0.000  1.000  0.000
       0.000  0.000  0.000  0.000  1.000
     SPIN  2
     eigenvalues:
       0.600  0.600  0.600  0.600  0.600
     eigenvectors (columns):
       1.000  0.000  0.000  0.000  0.000
       0.000  1.000  0.000  0.000  0.000
       0.000  0.000  1.000  0.000  0.000
       0.000  0.000  0.000  1.000  0.000
       0.000  0.000  0.000  0.000  1.000
     occupation matrix ns (before diag.):
       0.600  0.000  0.000  0.000  0.000
       0.000  0.600  0.000  0.000  0.000
       0.000  0.000  0.600  0.000  0.000
       0.000  0.000  0.000  0.600  0.000
       0.000  0.000  0.000  0.000  0.600
     --------------------- ATOM   34 ----------------------
     Tr[ns] (up, down, total) =   5.00000  3.00000  8.00000
     Atomic magnetic moment =   2.00000
     SPIN  1
     eigenvalues:
       1.000  1.000  1.000  1.000  1.000
     eigenvectors (columns):
       1.000  0.000  0.000  0.000  0.000
       0.000  1.000  0.000  0.000  0.000
       0.000  0.000  1.000  0.000  0.000
       0.000  0.000  0.000  1.000  0.000
       0.000  0.000  0.000  0.000  1.000
     occupation matrix ns (before diag.):
       1.000  0.000  0.000  0.000  0.000
       0.000  1.000  0.000  0.000  0.000
       0.000  0.000  1.000  0.000  0.000
       0.000  0.000  0.000  1.000  0.000
       0.000  0.000  0.000  0.000  1.000
     SPIN  2
     eigenvalues:
       0.600  0.600  0.600  0.600  0.600
     eigenvectors (columns):
       1.000  0.000  0.000  0.000  0.000
       0.000  1.000  0.000  0.000  0.000
       0.000  0.000  1.000  0.000  0.000
       0.000  0.000  0.000  1.000  0.000
       0.000  0.000  0.000  0.000  1.000
     occupation matrix ns (before diag.):
       0.600  0.000  0.000  0.000  0.000
       0.000  0.600  0.000  0.000  0.000
       0.000  0.000  0.600  0.000  0.000
       0.000  0.000  0.000  0.600  0.000
       0.000  0.000  0.000  0.000  0.600
     --------------------- ATOM   35 ----------------------
     Tr[ns] (up, down, total) =   5.00000  3.00000  8.00000
     Atomic magnetic moment =   2.00000
     SPIN  1
     eigenvalues:
       1.000  1.000  1.000  1.000  1.000
     eigenvectors (columns):
       1.000  0.000  0.000  0.000  0.000
       0.000  1.000  0.000  0.000  0.000
       0.000  0.000  1.000  0.000  0.000
       0.000  0.000  0.000  1.000  0.000
       0.000  0.000  0.000  0.000  1.000
     occupation matrix ns (before diag.):
       1.000  0.000  0.000  0.000  0.000
       0.000  1.000  0.000  0.000  0.000
       0.000  0.000  1.000  0.000  0.000
       0.000  0.000  0.000  1.000  0.000
       0.000  0.000  0.000  0.000  1.000
     SPIN  2
     eigenvalues:
       0.600  0.600  0.600  0.600  0.600
     eigenvectors (columns):
       1.000  0.000  0.000  0.000  0.000
       0.000  1.000  0.000  0.000  0.000
       0.000  0.000  1.000  0.000  0.000
       0.000  0.000  0.000  1.000  0.000
       0.000  0.000  0.000  0.000  1.000
     occupation matrix ns (before diag.):
       0.600  0.000  0.000  0.000  0.000
       0.000  0.600  0.000  0.000  0.000
       0.000  0.000  0.600  0.000  0.000
       0.000  0.000  0.000  0.600  0.000
       0.000  0.000  0.000  0.000  0.600
     --------------------- ATOM   36 ----------------------
     Tr[ns] (up, down, total) =   5.00000  3.00000  8.00000
     Atomic magnetic moment =   2.00000
     SPIN  1
     eigenvalues:
       1.000  1.000  1.000  1.000  1.000
     eigenvectors (columns):
       1.000  0.000  0.000  0.000  0.000
       0.000  1.000  0.000  0.000  0.000
       0.000  0.000  1.000  0.000  0.000
       0.000  0.000  0.000  1.000  0.000
       0.000  0.000  0.000  0.000  1.000
     occupation matrix ns (before diag.):
       1.000  0.000  0.000  0.000  0.000
       0.000  1.000  0.000  0.000  0.000
       0.000  0.000  1.000  0.000  0.000
       0.000  0.000  0.000  1.000  0.000
       0.000  0.000  0.000  0.000  1.000
     SPIN  2
     eigenvalues:
       0.600  0.600  0.600  0.600  0.600
     eigenvectors (columns):
       1.000  0.000  0.000  0.000  0.000
       0.000  1.000  0.000  0.000  0.000
       0.000  0.000  1.000  0.000  0.000
       0.000  0.000  0.000  1.000  0.000
       0.000  0.000  0.000  0.000  1.000
     occupation matrix ns (before diag.):
       0.600  0.000  0.000  0.000  0.000
       0.000  0.600  0.000  0.000  0.000
       0.000  0.000  0.600  0.000  0.000
       0.000  0.000  0.000  0.600  0.000
       0.000  0.000  0.000  0.000  0.600
     --------------------- ATOM   37 ----------------------
     Tr[ns] (up, down, total) =   5.00000  3.00000  8.00000
     Atomic magnetic moment =   2.00000
     SPIN  1
     eigenvalues:
       1.000  1.000  1.000  1.000  1.000
     eigenvectors (columns):
       1.000  0.000  0.000  0.000  0.000
       0.000  1.000  0.000  0.000  0.000
       0.000  0.000  1.000  0.000  0.000
       0.000  0.000  0.000  1.000  0.000
       0.000  0.000  0.000  0.000  1.000
     occupation matrix ns (before diag.):
       1.000  0.000  0.000  0.000  0.000
       0.000  1.000  0.000  0.000  0.000
       0.000  0.000  1.000  0.000  0.000
       0.000  0.000  0.000  1.000  0.000
       0.000  0.000  0.000  0.000  1.000
     SPIN  2
     eigenvalues:
       0.600  0.600  0.600  0.600  0.600
     eigenvectors (columns):
       1.000  0.000  0.000  0.000  0.000
       0.000  1.000  0.000  0.000  0.000
       0.000  0.000  1.000  0.000  0.000
       0.000  0.000  0.000  1.000  0.000
       0.000  0.000  0.000  0.000  1.000
     occupation matrix ns (before diag.):
       0.600  0.000  0.000  0.000  0.000
       0.000  0.600  0.000  0.000  0.000
       0.000  0.000  0.600  0.000  0.000
       0.000  0.000  0.000  0.600  0.000
       0.000  0.000  0.000  0.000  0.600
     --------------------- ATOM   38 ----------------------
     Tr[ns] (up, down, total) =   5.00000  3.00000  8.00000
     Atomic magnetic moment =   2.00000
     SPIN  1
     eigenvalues:
       1.000  1.000  1.000  1.000  1.000
     eigenvectors (columns):
       1.000  0.000  0.000  0.000  0.000
       0.000  1.000  0.000  0.000  0.000
       0.000  0.000  1.000  0.000  0.000
       0.000  0.000  0.000  1.000  0.000
       0.000  0.000  0.000  0.000  1.000
     occupation matrix ns (before diag.):
       1.000  0.000  0.000  0.000  0.000
       0.000  1.000  0.000  0.000  0.000
       0.000  0.000  1.000  0.000  0.000
       0.000  0.000  0.000  1.000  0.000
       0.000  0.000  0.000  0.000  1.000
     SPIN  2
     eigenvalues:
       0.600  0.600  0.600  0.600  0.600
     eigenvectors (columns):
       1.000  0.000  0.000  0.000  0.000
       0.000  1.000  0.000  0.000  0.000
       0.000  0.000  1.000  0.000  0.000
       0.000  0.000  0.000  1.000  0.000
       0.000  0.000  0.000  0.000  1.000
     occupation matrix ns (before diag.):
       0.600  0.000  0.000  0.000  0.000
       0.000  0.600  0.000  0.000  0.000
       0.000  0.000  0.600  0.000  0.000
       0.000  0.000  0.000  0.600  0.000
       0.000  0.000  0.000  0.000  0.600
     --------------------- ATOM   39 ----------------------
     Tr[ns] (up, down, total) =   5.00000  3.00000  8.00000
     Atomic magnetic moment =   2.00000
     SPIN  1
     eigenvalues:
       1.000  1.000  1.000  1.000  1.000
     eigenvectors (columns):
       1.000  0.000  0.000  0.000  0.000
       0.000  1.000  0.000  0.000  0.000
       0.000  0.000  1.000  0.000  0.000
       0.000  0.000  0.000  1.000  0.000
       0.000  0.000  0.000  0.000  1.000
     occupation matrix ns (before diag.):
       1.000  0.000  0.000  0.000  0.000
       0.000  1.000  0.000  0.000  0.000
       0.000  0.000  1.000  0.000  0.000
       0.000  0.000  0.000  1.000  0.000
       0.000  0.000  0.000  0.000  1.000
     SPIN  2
     eigenvalues:
       0.600  0.600  0.600  0.600  0.600
     eigenvectors (columns):
       1.000  0.000  0.000  0.000  0.000
       0.000  1.000  0.000  0.000  0.000
       0.000  0.000  1.000  0.000  0.000
       0.000  0.000  0.000  1.000  0.000
       0.000  0.000  0.000  0.000  1.000
     occupation matrix ns (before diag.):
       0.600  0.000  0.000  0.000  0.000
       0.000  0.600  0.000  0.000  0.000
       0.000  0.000  0.600  0.000  0.000
       0.000  0.000  0.000  0.600  0.000
       0.000  0.000  0.000  0.000  0.600
     --------------------- ATOM   40 ----------------------
     Tr[ns] (up, down, total) =   5.00000  3.00000  8.00000
     Atomic magnetic moment =   2.00000
     SPIN  1
     eigenvalues:
       1.000  1.000  1.000  1.000  1.000
     eigenvectors (columns):
       1.000  0.000  0.000  0.000  0.000
       0.000  1.000  0.000  0.000  0.000
       0.000  0.000  1.000  0.000  0.000
       0.000  0.000  0.000  1.000  0.000
       0.000  0.000  0.000  0.000  1.000
     occupation matrix ns (before diag.):
       1.000  0.000  0.000  0.000  0.000
       0.000  1.000  0.000  0.000  0.000
       0.000  0.000  1.000  0.000  0.000
       0.000  0.000  0.000  1.000  0.000
       0.000  0.000  0.000  0.000  1.000
     SPIN  2
     eigenvalues:
       0.600  0.600  0.600  0.600  0.600
     eigenvectors (columns):
       1.000  0.000  0.000  0.000  0.000
       0.000  1.000  0.000  0.000  0.000
       0.000  0.000  1.000  0.000  0.000
       0.000  0.000  0.000  1.000  0.000
       0.000  0.000  0.000  0.000  1.000
     occupation matrix ns (before diag.):
       0.600  0.000  0.000  0.000  0.000
       0.000  0.600  0.000  0.000  0.000
       0.000  0.000  0.600  0.000  0.000
       0.000  0.000  0.000  0.600  0.000
       0.000  0.000  0.000  0.000  0.600
     --------------------- ATOM   41 ----------------------
     Tr[ns] (up, down, total) =   5.00000  3.00000  8.00000
     Atomic magnetic moment =   2.00000
     SPIN  1
     eigenvalues:
       1.000  1.000  1.000  1.000  1.000
     eigenvectors (columns):
       1.000  0.000  0.000  0.000  0.000
       0.000  1.000  0.000  0.000  0.000
       0.000  0.000  1.000  0.000  0.000
       0.000  0.000  0.000  1.000  0.000
       0.000  0.000  0.000  0.000  1.000
     occupation matrix ns (before diag.):
       1.000  0.000  0.000  0.000  0.000
       0.000  1.000  0.000  0.000  0.000
       0.000  0.000  1.000  0.000  0.000
       0.000  0.000  0.000  1.000  0.000
       0.000  0.000  0.000  0.000  1.000
     SPIN  2
     eigenvalues:
       0.600  0.600  0.600  0.600  0.600
     eigenvectors (columns):
       1.000  0.000  0.000  0.000  0.000
       0.000  1.000  0.000  0.000  0.000
       0.000  0.000  1.000  0.000  0.000
       0.000  0.000  0.000  1.000  0.000
       0.000  0.000  0.000  0.000  1.000
     occupation matrix ns (before diag.):
       0.600  0.000  0.000  0.000  0.000
       0.000  0.600  0.000  0.000  0.000
       0.000  0.000  0.600  0.000  0.000
       0.000  0.000  0.000  0.600  0.000
       0.000  0.000  0.000  0.000  0.600
     --------------------- ATOM   42 ----------------------
     Tr[ns] (up, down, total) =   5.00000  3.00000  8.00000
     Atomic magnetic moment =   2.00000
     SPIN  1
     eigenvalues:
       1.000  1.000  1.000  1.000  1.000
     eigenvectors (columns):
       1.000  0.000  0.000  0.000  0.000
       0.000  1.000  0.000  0.000  0.000
       0.000  0.000  1.000  0.000  0.000
       0.000  0.000  0.000  1.000  0.000
       0.000  0.000  0.000  0.000  1.000
     occupation matrix ns (before diag.):
       1.000  0.000  0.000  0.000  0.000
       0.000  1.000  0.000  0.000  0.000
       0.000  0.000  1.000  0.000  0.000
       0.000  0.000  0.000  1.000  0.000
       0.000  0.000  0.000  0.000  1.000
     SPIN  2
     eigenvalues:
       0.600  0.600  0.600  0.600  0.600
     eigenvectors (columns):
       1.000  0.000  0.000  0.000  0.000
       0.000  1.000  0.000  0.000  0.000
       0.000  0.000  1.000  0.000  0.000
       0.000  0.000  0.000  1.000  0.000
       0.000  0.000  0.000  0.000  1.000
     occupation matrix ns (before diag.):
       0.600  0.000  0.000  0.000  0.000
       0.000  0.600  0.000  0.000  0.000
       0.000  0.000  0.600  0.000  0.000
       0.000  0.000  0.000  0.600  0.000
       0.000  0.000  0.000  0.000  0.600
     --------------------- ATOM   43 ----------------------
     Tr[ns] (up, down, total) =   5.00000  3.00000  8.00000
     Atomic magnetic moment =   2.00000
     SPIN  1
     eigenvalues:
       1.000  1.000  1.000  1.000  1.000
     eigenvectors (columns):
       1.000  0.000  0.000  0.000  0.000
       0.000  1.000  0.000  0.000  0.000
       0.000  0.000  1.000  0.000  0.000
       0.000  0.000  0.000  1.000  0.000
       0.000  0.000  0.000  0.000  1.000
     occupation matrix ns (before diag.):
       1.000  0.000  0.000  0.000  0.000
       0.000  1.000  0.000  0.000  0.000
       0.000  0.000  1.000  0.000  0.000
       0.000  0.000  0.000  1.000  0.000
       0.000  0.000  0.000  0.000  1.000
     SPIN  2
     eigenvalues:
       0.600  0.600  0.600  0.600  0.600
     eigenvectors (columns):
       1.000  0.000  0.000  0.000  0.000
       0.000  1.000  0.000  0.000  0.000
       0.000  0.000  1.000  0.000  0.000
       0.000  0.000  0.000  1.000  0.000
       0.000  0.000  0.000  0.000  1.000
     occupation matrix ns (before diag.):
       0.600  0.000  0.000  0.000  0.000
       0.000  0.600  0.000  0.000  0.000
       0.000  0.000  0.600  0.000  0.000
       0.000  0.000  0.000  0.600  0.000
       0.000  0.000  0.000  0.000  0.600
     --------------------- ATOM   44 ----------------------
     Tr[ns] (up, down, total) =   5.00000  3.00000  8.00000
     Atomic magnetic moment =   2.00000
     SPIN  1
     eigenvalues:
       1.000  1.000  1.000  1.000  1.000
     eigenvectors (columns):
       1.000  0.000  0.000  0.000  0.000
       0.000  1.000  0.000  0.000  0.000
       0.000  0.000  1.000  0.000  0.000
       0.000  0.000  0.000  1.000  0.000
       0.000  0.000  0.000  0.000  1.000
     occupation matrix ns (before diag.):
       1.000  0.000  0.000  0.000  0.000
       0.000  1.000  0.000  0.000  0.000
       0.000  0.000  1.000  0.000  0.000
       0.000  0.000  0.000  1.000  0.000
       0.000  0.000  0.000  0.000  1.000
     SPIN  2
     eigenvalues:
       0.600  0.600  0.600  0.600  0.600
     eigenvectors (columns):
       1.000  0.000  0.000  0.000  0.000
       0.000  1.000  0.000  0.000  0.000
       0.000  0.000  1.000  0.000  0.000
       0.000  0.000  0.000  1.000  0.000
       0.000  0.000  0.000  0.000  1.000
     occupation matrix ns (before diag.):
       0.600  0.000  0.000  0.000  0.000
       0.000  0.600  0.000  0.000  0.000
       0.000  0.000  0.600  0.000  0.000
       0.000  0.000  0.000  0.600  0.000
       0.000  0.000  0.000  0.000  0.600
     --------------------- ATOM   45 ----------------------
     Tr[ns] (up, down, total) =   5.00000  3.00000  8.00000
     Atomic magnetic moment =   2.00000
     SPIN  1
     eigenvalues:
       1.000  1.000  1.000  1.000  1.000
     eigenvectors (columns):
       1.000  0.000  0.000  0.000  0.000
       0.000  1.000  0.000  0.000  0.000
       0.000  0.000  1.000  0.000  0.000
       0.000  0.000  0.000  1.000  0.000
       0.000  0.000  0.000  0.000  1.000
     occupation matrix ns (before diag.):
       1.000  0.000  0.000  0.000  0.000
       0.000  1.000  0.000  0.000  0.000
       0.000  0.000  1.000  0.000  0.000
       0.000  0.000  0.000  1.000  0.000
       0.000  0.000  0.000  0.000  1.000
     SPIN  2
     eigenvalues:
       0.600  0.600  0.600  0.600  0.600
     eigenvectors (columns):
       1.000  0.000  0.000  0.000  0.000
       0.000  1.000  0.000  0.000  0.000
       0.000  0.000  1.000  0.000  0.000
       0.000  0.000  0.000  1.000  0.000
       0.000  0.000  0.000  0.000  1.000
     occupation matrix ns (before diag.):
       0.600  0.000  0.000  0.000  0.000
       0.000  0.600  0.000  0.000  0.000
       0.000  0.000  0.600  0.000  0.000
       0.000  0.000  0.000  0.600  0.000
       0.000  0.000  0.000  0.000  0.600
     --------------------- ATOM   46 ----------------------
     Tr[ns] (up, down, total) =   5.00000  3.00000  8.00000
     Atomic magnetic moment =   2.00000
     SPIN  1
     eigenvalues:
       1.000  1.000  1.000  1.000  1.000
     eigenvectors (columns):
       1.000  0.000  0.000  0.000  0.000
       0.000  1.000  0.000  0.000  0.000
       0.000  0.000  1.000  0.000  0.000
       0.000  0.000  0.000  1.000  0.000
       0.000  0.000  0.000  0.000  1.000
     occupation matrix ns (before diag.):
       1.000  0.000  0.000  0.000  0.000
       0.000  1.000  0.000  0.000  0.000
       0.000  0.000  1.000  0.000  0.000
       0.000  0.000  0.000  1.000  0.000
       0.000  0.000  0.000  0.000  1.000
     SPIN  2
     eigenvalues:
       0.600  0.600  0.600  0.600  0.600
     eigenvectors (columns):
       1.000  0.000  0.000  0.000  0.000
       0.000  1.000  0.000  0.000  0.000
       0.000  0.000  1.000  0.000  0.000
       0.000  0.000  0.000  1.000  0.000
       0.000  0.000  0.000  0.000  1.000
     occupation matrix ns (before diag.):
       0.600  0.000  0.000  0.000  0.000
       0.000  0.600  0.000  0.000  0.000
       0.000  0.000  0.600  0.000  0.000
       0.000  0.000  0.000  0.600  0.000
       0.000  0.000  0.000  0.000  0.600
     --------------------- ATOM   47 ----------------------
     Tr[ns] (up, down, total) =   5.00000  3.00000  8.00000
     Atomic magnetic moment =   2.00000
     SPIN  1
     eigenvalues:
       1.000  1.000  1.000  1.000  1.000
     eigenvectors (columns):
       1.000  0.000  0.000  0.000  0.000
       0.000  1.000  0.000  0.000  0.000
       0.000  0.000  1.000  0.000  0.000
       0.000  0.000  0.000  1.000  0.000
       0.000  0.000  0.000  0.000  1.000
     occupation matrix ns (before diag.):
       1.000  0.000  0.000  0.000  0.000
       0.000  1.000  0.000  0.000  0.000
       0.000  0.000  1.000  0.000  0.000
       0.000  0.000  0.000  1.000  0.000
       0.000  0.000  0.000  0.000  1.000
     SPIN  2
     eigenvalues:
       0.600  0.600  0.600  0.600  0.600
     eigenvectors (columns):
       1.000  0.000  0.000  0.000  0.000
       0.000  1.000  0.000  0.000  0.000
       0.000  0.000  1.000  0.000  0.000
       0.000  0.000  0.000  1.000  0.000
       0.000  0.000  0.000  0.000  1.000
     occupation matrix ns (before diag.):
       0.600  0.000  0.000  0.000  0.000
       0.000  0.600  0.000  0.000  0.000
       0.000  0.000  0.600  0.000  0.000
       0.000  0.000  0.000  0.600  0.000
       0.000  0.000  0.000  0.000  0.600
     --------------------- ATOM   48 ----------------------
     Tr[ns] (up, down, total) =   5.00000  3.00000  8.00000
     Atomic magnetic moment =   2.00000
     SPIN  1
     eigenvalues:
       1.000  1.000  1.000  1.000  1.000
     eigenvectors (columns):
       1.000  0.000  0.000  0.000  0.000
       0.000  1.000  0.000  0.000  0.000
       0.000  0.000  1.000  0.000  0.000
       0.000  0.000  0.000  1.000  0.000
       0.000  0.000  0.000  0.000  1.000
     occupation matrix ns (before diag.):
       1.000  0.000  0.000  0.000  0.000
       0.000  1.000  0.000  0.000  0.000
       0.000  0.000  1.000  0.000  0.000
       0.000  0.000  0.000  1.000  0.000
       0.000  0.000  0.000  0.000  1.000
     SPIN  2
     eigenvalues:
       0.600  0.600  0.600  0.600  0.600
     eigenvectors (columns):
       1.000  0.000  0.000  0.000  0.000
       0.000  1.000  0.000  0.000  0.000
       0.000  0.000  1.000  0.000  0.000
       0.000  0.000  0.000  1.000  0.000
       0.000  0.000  0.000  0.000  1.000
     occupation matrix ns (before diag.):
       0.600  0.000  0.000  0.000  0.000
       0.000  0.600  0.000  0.000  0.000
       0.000  0.000  0.600  0.000  0.000
       0.000  0.000  0.000  0.600  0.000
       0.000  0.000  0.000  0.000  0.600
     --------------------- ATOM   49 ----------------------
     Tr[ns] (up, down, total) =   3.00000  5.00000  8.00000
     Atomic magnetic moment =  -2.00000
     SPIN  1
     eigenvalues:
       0.600  0.600  0.600  0.600  0.600
     eigenvectors (columns):
       1.000  0.000  0.000  0.000  0.000
       0.000  1.000  0.000  0.000  0.000
       0.000  0.000  1.000  0.000  0.000
       0.000  0.000  0.000  1.000  0.000
       0.000  0.000  0.000  0.000  1.000
     occupation matrix ns (before diag.):
       0.600  0.000  0.000  0.000  0.000
       0.000  0.600  0.000  0.000  0.000
       0.000  0.000  0.600  0.000  0.000
       0.000  0.000  0.000  0.600  0.000
       0.000  0.000  0.000  0.000  0.600
     SPIN  2
     eigenvalues:
       1.000  1.000  1.000  1.000  1.000
     eigenvectors (columns):
       1.000  0.000  0.000  0.000  0.000
       0.000  1.000  0.000  0.000  0.000
       0.000  0.000  1.000  0.000  0.000
       0.000  0.000  0.000  1.000  0.000
       0.000  0.000  0.000  0.000  1.000
     occupation matrix ns (before diag.):
       1.000  0.000  0.000  0.000  0.000
       0.000  1.000  0.000  0.000  0.000
       0.000  0.000  1.000  0.000  0.000
       0.000  0.000  0.000  1.000  0.000
       0.000  0.000  0.000  0.000  1.000
     --------------------- ATOM   50 ----------------------
     Tr[ns] (up, down, total) =   3.00000  5.00000  8.00000
     Atomic magnetic moment =  -2.00000
     SPIN  1
     eigenvalues:
       0.600  0.600  0.600  0.600  0.600
     eigenvectors (columns):
       1.000  0.000  0.000  0.000  0.000
       0.000  1.000  0.000  0.000  0.000
       0.000  0.000  1.000  0.000  0.000
       0.000  0.000  0.000  1.000  0.000
       0.000  0.000  0.000  0.000  1.000
     occupation matrix ns (before diag.):
       0.600  0.000  0.000  0.000  0.000
       0.000  0.600  0.000  0.000  0.000
       0.000  0.000  0.600  0.000  0.000
       0.000  0.000  0.000  0.600  0.000
       0.000  0.000  0.000  0.000  0.600
     SPIN  2
     eigenvalues:
       1.000  1.000  1.000  1.000  1.000
     eigenvectors (columns):
       1.000  0.000  0.000  0.000  0.000
       0.000  1.000  0.000  0.000  0.000
       0.000  0.000  1.000  0.000  0.000
       0.000  0.000  0.000  1.000  0.000
       0.000  0.000  0.000  0.000  1.000
     occupation matrix ns (before diag.):
       1.000  0.000  0.000  0.000  0.000
       0.000  1.000  0.000  0.000  0.000
       0.000  0.000  1.000  0.000  0.000
       0.000  0.000  0.000  1.000  0.000
       0.000  0.000  0.000  0.000  1.000
     --------------------- ATOM   51 ----------------------
     Tr[ns] (up, down, total) =   3.00000  5.00000  8.00000
     Atomic magnetic moment =  -2.00000
     SPIN  1
     eigenvalues:
       0.600  0.600  0.600  0.600  0.600
     eigenvectors (columns):
       1.000  0.000  0.000  0.000  0.000
       0.000  1.000  0.000  0.000  0.000
       0.000  0.000  1.000  0.000  0.000
       0.000  0.000  0.000  1.000  0.000
       0.000  0.000  0.000  0.000  1.000
     occupation matrix ns (before diag.):
       0.600  0.000  0.000  0.000  0.000
       0.000  0.600  0.000  0.000  0.000
       0.000  0.000  0.600  0.000  0.000
       0.000  0.000  0.000  0.600  0.000
       0.000  0.000  0.000  0.000  0.600
     SPIN  2
     eigenvalues:
       1.000  1.000  1.000  1.000  1.000
     eigenvectors (columns):
       1.000  0.000  0.000  0.000  0.000
       0.000  1.000  0.000  0.000  0.000
       0.000  0.000  1.000  0.000  0.000
       0.000  0.000  0.000  1.000  0.000
       0.000  0.000  0.000  0.000  1.000
     occupation matrix ns (before diag.):
       1.000  0.000  0.000  0.000  0.000
       0.000  1.000  0.000  0.000  0.000
       0.000  0.000  1.000  0.000  0.000
       0.000  0.000  0.000  1.000  0.000
       0.000  0.000  0.000  0.000  1.000
     --------------------- ATOM   52 ----------------------
     Tr[ns] (up, down, total) =   3.00000  5.00000  8.00000
     Atomic magnetic moment =  -2.00000
     SPIN  1
     eigenvalues:
       0.600  0.600  0.600  0.600  0.600
     eigenvectors (columns):
       1.000  0.000  0.000  0.000  0.000
       0.000  1.000  0.000  0.000  0.000
       0.000  0.000  1.000  0.000  0.000
       0.000  0.000  0.000  1.000  0.000
       0.000  0.000  0.000  0.000  1.000
     occupation matrix ns (before diag.):
       0.600  0.000  0.000  0.000  0.000
       0.000  0.600  0.000  0.000  0.000
       0.000  0.000  0.600  0.000  0.000
       0.000  0.000  0.000  0.600  0.000
       0.000  0.000  0.000  0.000  0.600
     SPIN  2
     eigenvalues:
       1.000  1.000  1.000  1.000  1.000
     eigenvectors (columns):
       1.000  0.000  0.000  0.000  0.000
       0.000  1.000  0.000  0.000  0.000
       0.000  0.000  1.000  0.000  0.000
       0.000  0.000  0.000  1.000  0.000
       0.000  0.000  0.000  0.000  1.000
     occupation matrix ns (before diag.):
       1.000  0.000  0.000  0.000  0.000
       0.000  1.000  0.000  0.000  0.000
       0.000  0.000  1.000  0.000  0.000
       0.000  0.000  0.000  1.000  0.000
       0.000  0.000  0.000  0.000  1.000
     --------------------- ATOM   53 ----------------------
     Tr[ns] (up, down, total) =   3.00000  5.00000  8.00000
     Atomic magnetic moment =  -2.00000
     SPIN  1
     eigenvalues:
       0.600  0.600  0.600  0.600  0.600
     eigenvectors (columns):
       1.000  0.000  0.000  0.000  0.000
       0.000  1.000  0.000  0.000  0.000
       0.000  0.000  1.000  0.000  0.000
       0.000  0.000  0.000  1.000  0.000
       0.000  0.000  0.000  0.000  1.000
     occupation matrix ns (before diag.):
       0.600  0.000  0.000  0.000  0.000
       0.000  0.600  0.000  0.000  0.000
       0.000  0.000  0.600  0.000  0.000
       0.000  0.000  0.000  0.600  0.000
       0.000  0.000  0.000  0.000  0.600
     SPIN  2
     eigenvalues:
       1.000  1.000  1.000  1.000  1.000
     eigenvectors (columns):
       1.000  0.000  0.000  0.000  0.000
       0.000  1.000  0.000  0.000  0.000
       0.000  0.000  1.000  0.000  0.000
       0.000  0.000  0.000  1.000  0.000
       0.000  0.000  0.000  0.000  1.000
     occupation matrix ns (before diag.):
       1.000  0.000  0.000  0.000  0.000
       0.000  1.000  0.000  0.000  0.000
       0.000  0.000  1.000  0.000  0.000
       0.000  0.000  0.000  1.000  0.000
       0.000  0.000  0.000  0.000  1.000
     --------------------- ATOM   54 ----------------------
     Tr[ns] (up, down, total) =   3.00000  5.00000  8.00000
     Atomic magnetic moment =  -2.00000
     SPIN  1
     eigenvalues:
       0.600  0.600  0.600  0.600  0.600
     eigenvectors (columns):
       1.000  0.000  0.000  0.000  0.000
       0.000  1.000  0.000  0.000  0.000
       0.000  0.000  1.000  0.000  0.000
       0.000  0.000  0.000  1.000  0.000
       0.000  0.000  0.000  0.000  1.000
     occupation matrix ns (before diag.):
       0.600  0.000  0.000  0.000  0.000
       0.000  0.600  0.000  0.000  0.000
       0.000  0.000  0.600  0.000  0.000
       0.000  0.000  0.000  0.600  0.000
       0.000  0.000  0.000  0.000  0.600
     SPIN  2
     eigenvalues:
       1.000  1.000  1.000  1.000  1.000
     eigenvectors (columns):
       1.000  0.000  0.000  0.000  0.000
       0.000  1.000  0.000  0.000  0.000
       0.000  0.000  1.000  0.000  0.000
       0.000  0.000  0.000  1.000  0.000
       0.000  0.000  0.000  0.000  1.000
     occupation matrix ns (before diag.):
       1.000  0.000  0.000  0.000  0.000
       0.000  1.000  0.000  0.000  0.000
       0.000  0.000  1.000  0.000  0.000
       0.000  0.000  0.000  1.000  0.000
       0.000  0.000  0.000  0.000  1.000
     --------------------- ATOM   55 ----------------------
     Tr[ns] (up, down, total) =   3.00000  5.00000  8.00000
     Atomic magnetic moment =  -2.00000
     SPIN  1
     eigenvalues:
       0.600  0.600  0.600  0.600  0.600
     eigenvectors (columns):
       1.000  0.000  0.000  0.000  0.000
       0.000  1.000  0.000  0.000  0.000
       0.000  0.000  1.000  0.000  0.000
       0.000  0.000  0.000  1.000  0.000
       0.000  0.000  0.000  0.000  1.000
     occupation matrix ns (before diag.):
       0.600  0.000  0.000  0.000  0.000
       0.000  0.600  0.000  0.000  0.000
       0.000  0.000  0.600  0.000  0.000
       0.000  0.000  0.000  0.600  0.000
       0.000  0.000  0.000  0.000  0.600
     SPIN  2
     eigenvalues:
       1.000  1.000  1.000  1.000  1.000
     eigenvectors (columns):
       1.000  0.000  0.000  0.000  0.000
       0.000  1.000  0.000  0.000  0.000
       0.000  0.000  1.000  0.000  0.000
       0.000  0.000  0.000  1.000  0.000
       0.000  0.000  0.000  0.000  1.000
     occupation matrix ns (before diag.):
       1.000  0.000  0.000  0.000  0.000
       0.000  1.000  0.000  0.000  0.000
       0.000  0.000  1.000  0.000  0.000
       0.000  0.000  0.000  1.000  0.000
       0.000  0.000  0.000  0.000  1.000
     --------------------- ATOM   56 ----------------------
     Tr[ns] (up, down, total) =   3.00000  5.00000  8.00000
     Atomic magnetic moment =  -2.00000
     SPIN  1
     eigenvalues:
       0.600  0.600  0.600  0.600  0.600
     eigenvectors (columns):
       1.000  0.000  0.000  0.000  0.000
       0.000  1.000  0.000  0.000  0.000
       0.000  0.000  1.000  0.000  0.000
       0.000  0.000  0.000  1.000  0.000
       0.000  0.000  0.000  0.000  1.000
     occupation matrix ns (before diag.):
       0.600  0.000  0.000  0.000  0.000
       0.000  0.600  0.000  0.000  0.000
       0.000  0.000  0.600  0.000  0.000
       0.000  0.000  0.000  0.600  0.000
       0.000  0.000  0.000  0.000  0.600
     SPIN  2
     eigenvalues:
       1.000  1.000  1.000  1.000  1.000
     eigenvectors (columns):
       1.000  0.000  0.000  0.000  0.000
       0.000  1.000  0.000  0.000  0.000
       0.000  0.000  1.000  0.000  0.000
       0.000  0.000  0.000  1.000  0.000
       0.000  0.000  0.000  0.000  1.000
     occupation matrix ns (before diag.):
       1.000  0.000  0.000  0.000  0.000
       0.000  1.000  0.000  0.000  0.000
       0.000  0.000  1.000  0.000  0.000
       0.000  0.000  0.000  1.000  0.000
       0.000  0.000  0.000  0.000  1.000
     --------------------- ATOM   57 ----------------------
     Tr[ns] (up, down, total) =   3.00000  5.00000  8.00000
     Atomic magnetic moment =  -2.00000
     SPIN  1
     eigenvalues:
       0.600  0.600  0.600  0.600  0.600
     eigenvectors (columns):
       1.000  0.000  0.000  0.000  0.000
       0.000  1.000  0.000  0.000  0.000
       0.000  0.000  1.000  0.000  0.000
       0.000  0.000  0.000  1.000  0.000
       0.000  0.000  0.000  0.000  1.000
     occupation matrix ns (before diag.):
       0.600  0.000  0.000  0.000  0.000
       0.000  0.600  0.000  0.000  0.000
       0.000  0.000  0.600  0.000  0.000
       0.000  0.000  0.000  0.600  0.000
       0.000  0.000  0.000  0.000  0.600
     SPIN  2
     eigenvalues:
       1.000  1.000  1.000  1.000  1.000
     eigenvectors (columns):
       1.000  0.000  0.000  0.000  0.000
       0.000  1.000  0.000  0.000  0.000
       0.000  0.000  1.000  0.000  0.000
       0.000  0.000  0.000  1.000  0.000
       0.000  0.000  0.000  0.000  1.000
     occupation matrix ns (before diag.):
       1.000  0.000  0.000  0.000  0.000
       0.000  1.000  0.000  0.000  0.000
       0.000  0.000  1.000  0.000  0.000
       0.000  0.000  0.000  1.000  0.000
       0.000  0.000  0.000  0.000  1.000
     --------------------- ATOM   58 ----------------------
     Tr[ns] (up, down, total) =   3.00000  5.00000  8.00000
     Atomic magnetic moment =  -2.00000
     SPIN  1
     eigenvalues:
       0.600  0.600  0.600  0.600  0.600
     eigenvectors (columns):
       1.000  0.000  0.000  0.000  0.000
       0.000  1.000  0.000  0.000  0.000
       0.000  0.000  1.000  0.000  0.000
       0.000  0.000  0.000  1.000  0.000
       0.000  0.000  0.000  0.000  1.000
     occupation matrix ns (before diag.):
       0.600  0.000  0.000  0.000  0.000
       0.000  0.600  0.000  0.000  0.000
       0.000  0.000  0.600  0.000  0.000
       0.000  0.000  0.000  0.600  0.000
       0.000  0.000  0.000  0.000  0.600
     SPIN  2
     eigenvalues:
       1.000  1.000  1.000  1.000  1.000
     eigenvectors (columns):
       1.000  0.000  0.000  0.000  0.000
       0.000  1.000  0.000  0.000  0.000
       0.000  0.000  1.000  0.000  0.000
       0.000  0.000  0.000  1.000  0.000
       0.000  0.000  0.000  0.000  1.000
     occupation matrix ns (before diag.):
       1.000  0.000  0.000  0.000  0.000
       0.000  1.000  0.000  0.000  0.000
       0.000  0.000  1.000  0.000  0.000
       0.000  0.000  0.000  1.000  0.000
       0.000  0.000  0.000  0.000  1.000
     --------------------- ATOM   59 ----------------------
     Tr[ns] (up, down, total) =   3.00000  5.00000  8.00000
     Atomic magnetic moment =  -2.00000
     SPIN  1
     eigenvalues:
       0.600  0.600  0.600  0.600  0.600
     eigenvectors (columns):
       1.000  0.000  0.000  0.000  0.000
       0.000  1.000  0.000  0.000  0.000
       0.000  0.000  1.000  0.000  0.000
       0.000  0.000  0.000  1.000  0.000
       0.000  0.000  0.000  0.000  1.000
     occupation matrix ns (before diag.):
       0.600  0.000  0.000  0.000  0.000
       0.000  0.600  0.000  0.000  0.000
       0.000  0.000  0.600  0.000  0.000
       0.000  0.000  0.000  0.600  0.000
       0.000  0.000  0.000  0.000  0.600
     SPIN  2
     eigenvalues:
       1.000  1.000  1.000  1.000  1.000
     eigenvectors (columns):
       1.000  0.000  0.000  0.000  0.000
       0.000  1.000  0.000  0.000  0.000
       0.000  0.000  1.000  0.000  0.000
       0.000  0.000  0.000  1.000  0.000
       0.000  0.000  0.000  0.000  1.000
     occupation matrix ns (before diag.):
       1.000  0.000  0.000  0.000  0.000
       0.000  1.000  0.000  0.000  0.000
       0.000  0.000  1.000  0.000  0.000
       0.000  0.000  0.000  1.000  0.000
       0.000  0.000  0.000  0.000  1.000
     --------------------- ATOM   60 ----------------------
     Tr[ns] (up, down, total) =   3.00000  5.00000  8.00000
     Atomic magnetic moment =  -2.00000
     SPIN  1
     eigenvalues:
       0.600  0.600  0.600  0.600  0.600
     eigenvectors (columns):
       1.000  0.000  0.000  0.000  0.000
       0.000  1.000  0.000  0.000  0.000
       0.000  0.000  1.000  0.000  0.000
       0.000  0.000  0.000  1.000  0.000
       0.000  0.000  0.000  0.000  1.000
     occupation matrix ns (before diag.):
       0.600  0.000  0.000  0.000  0.000
       0.000  0.600  0.000  0.000  0.000
       0.000  0.000  0.600  0.000  0.000
       0.000  0.000  0.000  0.600  0.000
       0.000  0.000  0.000  0.000  0.600
     SPIN  2
     eigenvalues:
       1.000  1.000  1.000  1.000  1.000
     eigenvectors (columns):
       1.000  0.000  0.000  0.000  0.000
       0.000  1.000  0.000  0.000  0.000
       0.000  0.000  1.000  0.000  0.000
       0.000  0.000  0.000  1.000  0.000
       0.000  0.000  0.000  0.000  1.000
     occupation matrix ns (before diag.):
       1.000  0.000  0.000  0.000  0.000
       0.000  1.000  0.000  0.000  0.000
       0.000  0.000  1.000  0.000  0.000
       0.000  0.000  0.000  1.000  0.000
       0.000  0.000  0.000  0.000  1.000
     --------------------- ATOM   61 ----------------------
     Tr[ns] (up, down, total) =   3.00000  5.00000  8.00000
     Atomic magnetic moment =  -2.00000
     SPIN  1
     eigenvalues:
       0.600  0.600  0.600  0.600  0.600
     eigenvectors (columns):
       1.000  0.000  0.000  0.000  0.000
       0.000  1.000  0.000  0.000  0.000
       0.000  0.000  1.000  0.000  0.000
       0.000  0.000  0.000  1.000  0.000
       0.000  0.000  0.000  0.000  1.000
     occupation matrix ns (before diag.):
       0.600  0.000  0.000  0.000  0.000
       0.000  0.600  0.000  0.000  0.000
       0.000  0.000  0.600  0.000  0.000
       0.000  0.000  0.000  0.600  0.000
       0.000  0.000  0.000  0.000  0.600
     SPIN  2
     eigenvalues:
       1.000  1.000  1.000  1.000  1.000
     eigenvectors (columns):
       1.000  0.000  0.000  0.000  0.000
       0.000  1.000  0.000  0.000  0.000
       0.000  0.000  1.000  0.000  0.000
       0.000  0.000  0.000  1.000  0.000
       0.000  0.000  0.000  0.000  1.000
     occupation matrix ns (before diag.):
       1.000  0.000  0.000  0.000  0.000
       0.000  1.000  0.000  0.000  0.000
       0.000  0.000  1.000  0.000  0.000
       0.000  0.000  0.000  1.000  0.000
       0.000  0.000  0.000  0.000  1.000
     --------------------- ATOM   62 ----------------------
     Tr[ns] (up, down, total) =   3.00000  5.00000  8.00000
     Atomic magnetic moment =  -2.00000
     SPIN  1
     eigenvalues:
       0.600  0.600  0.600  0.600  0.600
     eigenvectors (columns):
       1.000  0.000  0.000  0.000  0.000
       0.000  1.000  0.000  0.000  0.000
       0.000  0.000  1.000  0.000  0.000
       0.000  0.000  0.000  1.000  0.000
       0.000  0.000  0.000  0.000  1.000
     occupation matrix ns (before diag.):
       0.600  0.000  0.000  0.000  0.000
       0.000  0.600  0.000  0.000  0.000
       0.000  0.000  0.600  0.000  0.000
       0.000  0.000  0.000  0.600  0.000
       0.000  0.000  0.000  0.000  0.600
     SPIN  2
     eigenvalues:
       1.000  1.000  1.000  1.000  1.000
     eigenvectors (columns):
       1.000  0.000  0.000  0.000  0.000
       0.000  1.000  0.000  0.000  0.000
       0.000  0.000  1.000  0.000  0.000
       0.000  0.000  0.000  1.000  0.000
       0.000  0.000  0.000  0.000  1.000
     occupation matrix ns (before diag.):
       1.000  0.000  0.000  0.000  0.000
       0.000  1.000  0.000  0.000  0.000
       0.000  0.000  1.000  0.000  0.000
       0.000  0.000  0.000  1.000  0.000
       0.000  0.000  0.000  0.000  1.000
     --------------------- ATOM   63 ----------------------
     Tr[ns] (up, down, total) =   3.00000  5.00000  8.00000
     Atomic magnetic moment =  -2.00000
     SPIN  1
     eigenvalues:
       0.600  0.600  0.600  0.600  0.600
     eigenvectors (columns):
       1.000  0.000  0.000  0.000  0.000
       0.000  1.000  0.000  0.000  0.000
       0.000  0.000  1.000  0.000  0.000
       0.000  0.000  0.000  1.000  0.000
       0.000  0.000  0.000  0.000  1.000
     occupation matrix ns (before diag.):
       0.600  0.000  0.000  0.000  0.000
       0.000  0.600  0.000  0.000  0.000
       0.000  0.000  0.600  0.000  0.000
       0.000  0.000  0.000  0.600  0.000
       0.000  0.000  0.000  0.000  0.600
     SPIN  2
     eigenvalues:
       1.000  1.000  1.000  1.000  1.000
     eigenvectors (columns):
       1.000  0.000  0.000  0.000  0.000
       0.000  1.000  0.000  0.000  0.000
       0.000  0.000  1.000  0.000  0.000
       0.000  0.000  0.000  1.000  0.000
       0.000  0.000  0.000  0.000  1.000
     occupation matrix ns (before diag.):
       1.000  0.000  0.000  0.000  0.000
       0.000  1.000  0.000  0.000  0.000
       0.000  0.000  1.000  0.000  0.000
       0.000  0.000  0.000  1.000  0.000
       0.000  0.000  0.000  0.000  1.000
     --------------------- ATOM   64 ----------------------
     Tr[ns] (up, down, total) =   3.00000  5.00000  8.00000
     Atomic magnetic moment =  -2.00000
     SPIN  1
     eigenvalues:
       0.600  0.600  0.600  0.600  0.600
     eigenvectors (columns):
       1.000  0.000  0.000  0.000  0.000
       0.000  1.000  0.000  0.000  0.000
       0.000  0.000  1.000  0.000  0.000
       0.000  0.000  0.000  1.000  0.000
       0.000  0.000  0.000  0.000  1.000
     occupation matrix ns (before diag.):
       0.600  0.000  0.000  0.000  0.000
       0.000  0.600  0.000  0.000  0.000
       0.000  0.000  0.600  0.000  0.000
       0.000  0.000  0.000  0.600  0.000
       0.000  0.000  0.000  0.000  0.600
     SPIN  2
     eigenvalues:
       1.000  1.000  1.000  1.000  1.000
     eigenvectors (columns):
       1.000  0.000  0.000  0.000  0.000
       0.000  1.000  0.000  0.000  0.000
       0.000  0.000  1.000  0.000  0.000
       0.000  0.000  0.000  1.000  0.000
       0.000  0.000  0.000  0.000  1.000
     occupation matrix ns (before diag.):
       1.000  0.000  0.000  0.000  0.000
       0.000  1.000  0.000  0.000  0.000
       0.000  0.000  1.000  0.000  0.000
       0.000  0.000  0.000  1.000  0.000
       0.000  0.000  0.000  0.000  1.000

     Number of occupied Hubbard levels =  256.0000
 Atomic wfc used for LDA+U Projector are NOT orthogonalized
     Starting wfcs are  448 randomized atomic wfcs

     total cpu time spent up to now is        4.0 secs

     per-process dynamical memory:   124.4 Mb

     Self-consistent Calculation

     iteration #  1     ecut=   162.71 Ry     beta= 0.25
     Davidson diagonalization with overlap

---- Real-time Memory Report at c_bands before calling an iterative solver
           176 MiB given to the printing process from OS
           122 MiB allocation reported by mallinfo(arena+hblkhd)
        246228 MiB available memory on the node where the printing process lives
------------------
     ethr =  1.00E-02,  avg # of iterations =  9.0

     Hubbard parameters (eV):
     U(  2) =  6.5000
     U(  3) =  6.5000

     ================= HUBBARD OCCUPATIONS ================
     --------------------- ATOM   33 ----------------------
     Tr[ns] (up, down, total) =   4.98865  0.69527  5.68392
     Atomic magnetic moment =   4.29339
     SPIN  1
     eigenvalues:
       0.997  0.997  0.998  0.998  0.998
     eigenvectors (columns):
       0.406  0.904  0.000  0.126 -0.047
      -0.109 -0.011 -0.577  0.624  0.515
       0.064 -0.089 -0.577  0.133 -0.798
       0.904 -0.406 -0.000  0.047  0.126
      -0.045 -0.100  0.577  0.758 -0.283
     occupation matrix ns (before diag.):
       0.997  0.000  0.000 -0.000  0.000
       0.000  0.998 -0.000  0.000  0.000
       0.000 -0.000  0.998 -0.000  0.000
      -0.000  0.000 -0.000  0.997 -0.000
       0.000  0.000  0.000 -0.000  0.998
     SPIN  2
     eigenvalues:
       0.087  0.087  0.154  0.154  0.213
     eigenvectors (columns):
       0.472  0.881 -0.035 -0.001  0.000
       0.028  0.001  0.435 -0.690 -0.577
      -0.015  0.024  0.380  0.722 -0.577
       0.881 -0.472 -0.001  0.035 -0.000
       0.013  0.025  0.815  0.032  0.577
     occupation matrix ns (before diag.):
       0.087 -0.001 -0.001 -0.000 -0.002
      -0.001  0.173  0.020 -0.002 -0.020
      -0.001  0.020  0.173  0.002 -0.020
      -0.000 -0.002  0.002  0.087 -0.000
      -0.002 -0.020 -0.020 -0.000  0.173
     --------------------- ATOM   34 ----------------------
     Tr[ns] (up, down, total) =   4.98866  0.69938  5.68803
     Atomic magnetic moment =   4.28928
     SPIN  1
     eigenvalues:
       0.997  0.997  0.998  0.998  0.998
     eigenvectors (columns):
       0.495  0.858  0.001 -0.067 -0.117
      -0.109 -0.000  0.591 -0.800  0.000
       0.055 -0.096  0.571  0.414 -0.701
       0.858 -0.495  0.001 -0.116  0.068
      -0.055 -0.096 -0.571 -0.414 -0.701
     occupation matrix ns (before diag.):
       0.997  0.000  0.000 -0.000  0.000
       0.000  0.998 -0.000  0.000  0.000
       0.000 -0.000  0.998 -0.000  0.000
      -0.000  0.000 -0.000  0.997  0.000
       0.000  0.000  0.000  0.000  0.998
     SPIN  2
     eigenvalues:
       0.087  0.087  0.155  0.157  0.213
     eigenvectors (columns):
      -0.865  0.500  0.018  0.032  0.000
       0.000  0.029 -0.816  0.000 -0.577
      -0.026 -0.014  0.408 -0.707 -0.577
       0.500  0.865  0.031 -0.018  0.001
      -0.026  0.014 -0.408 -0.707  0.577
     occupation matrix ns (before diag.):
       0.087 -0.001 -0.001  0.000 -0.002
      -0.001  0.174  0.020 -0.002 -0.020
      -0.001  0.020  0.175  0.002 -0.018
       0.000 -0.002  0.002  0.087  0.000
      -0.002 -0.020 -0.018  0.000  0.175
     --------------------- ATOM   35 ----------------------
     Tr[ns] (up, down, total) =   4.98865  0.69591  5.68456
     Atomic magnetic moment =   4.29275
     SPIN  1
     eigenvalues:
       0.997  0.997  0.998  0.998  0.998
     eigenvectors (columns):
      -0.496  0.859  0.002 -0.065  0.112
       0.104 -0.000 -0.583 -0.806 -0.000
      -0.056 -0.092 -0.574  0.408  0.701
      -0.859 -0.496  0.003 -0.113 -0.065
       0.056 -0.092  0.574 -0.408  0.701
     occupation matrix ns (before diag.):
       0.997  0.000  0.000 -0.000  0.000
       0.000  0.998 -0.000  0.000  0.000
       0.000 -0.000  0.998 -0.000  0.000
      -0.000  0.000 -0.000  0.997  0.000
       0.000  0.000  0.000  0.000  0.998
     SPIN  2
     eigenvalues:
       0.087  0.087  0.154  0.155  0.213
     eigenvectors (columns):
       0.865  0.500  0.030 -0.018  0.000
      -0.000  0.029 -0.000  0.816 -0.577
       0.025 -0.014 -0.707 -0.408 -0.577
      -0.500  0.865 -0.018 -0.031  0.000
       0.025  0.014 -0.707  0.408  0.577
     occupation matrix ns (before diag.):
       0.087 -0.001 -0.001  0.000 -0.002
      -0.001  0.174  0.019 -0.002 -0.019
      -0.001  0.019  0.174  0.002 -0.020
       0.000 -0.002  0.002  0.087 -0.000
      -0.002 -0.019 -0.020 -0.000  0.174
     --------------------- ATOM   36 ----------------------
     Tr[ns] (up, down, total) =   4.98866  0.69938  5.68803
     Atomic magnetic moment =   4.28928
     SPIN  1
     eigenvalues:
       0.997  0.997  0.998  0.998  0.998
     eigenvectors (columns):
       0.495  0.858  0.001 -0.067 -0.117
       0.055 -0.096  0.571  0.414 -0.701
      -0.109 -0.000  0.591 -0.800  0.000
      -0.858  0.495 -0.001  0.116 -0.068
      -0.055 -0.096 -0.571 -0.414 -0.701
     occupation matrix ns (before diag.):
       0.997  0.000  0.000  0.000  0.000
       0.000  0.998 -0.000  0.000  0.000
       0.000 -0.000  0.998 -0.000  0.000
       0.000  0.000 -0.000  0.997 -0.000
       0.000  0.000  0.000 -0.000  0.998
     SPIN  2
     eigenvalues:
       0.087  0.087  0.155  0.157  0.213
     eigenvectors (columns):
       0.865 -0.500 -0.018 -0.032  0.000
       0.026  0.014 -0.408  0.707 -0.577
      -0.000 -0.029  0.816 -0.000 -0.577
       0.500  0.865  0.031 -0.018 -0.001
       0.026 -0.014  0.408  0.707  0.577
     occupation matrix ns (before diag.):
       0.087 -0.001 -0.001 -0.000 -0.002
      -0.001  0.175  0.020 -0.002 -0.018
      -0.001  0.020  0.174  0.002 -0.020
      -0.000 -0.002  0.002  0.087 -0.000
      -0.002 -0.018 -0.020 -0.000  0.175
     --------------------- ATOM   37 ----------------------
     Tr[ns] (up, down, total) =   4.98866  0.69908  5.68774
     Atomic magnetic moment =   4.28958
     SPIN  1
     eigenvalues:
       0.997  0.997  0.998  0.998  0.998
     eigenvectors (columns):
       0.991 -0.000 -0.000 -0.135 -0.000
      -0.055 -0.094  0.576 -0.406  0.701
      -0.055  0.094  0.576 -0.406 -0.701
       0.000  0.991  0.000 -0.000  0.134
      -0.110  0.000 -0.579 -0.808 -0.000
     occupation matrix ns (before diag.):
       0.997  0.000  0.000 -0.000  0.000
       0.000  0.998 -0.000  0.000  0.000
       0.000 -0.000  0.998 -0.000  0.000
      -0.000  0.000 -0.000  0.997 -0.000
       0.000  0.000  0.000 -0.000  0.998
     SPIN  2
     eigenvalues:
       0.087  0.087  0.155  0.157  0.213
     eigenvectors (columns):
      -0.000  0.999 -0.035  0.000 -0.000
      -0.026  0.014  0.409 -0.707 -0.576
       0.026  0.014  0.409  0.707 -0.576
      -0.999 -0.000 -0.000  0.037 -0.000
      -0.000  0.029  0.815 -0.000  0.579
     occupation matrix ns (before diag.):
       0.087 -0.001 -0.001 -0.000 -0.002
      -0.001  0.175  0.018 -0.002 -0.019
      -0.001  0.018  0.175  0.002 -0.019
      -0.000 -0.002  0.002  0.087 -0.000
      -0.002 -0.019 -0.019 -0.000  0.174
     --------------------- ATOM   38 ----------------------
     Tr[ns] (up, down, total) =   4.98866  0.69908  5.68774
     Atomic magnetic moment =   4.28958
     SPIN  1
     eigenvalues:
       0.997  0.997  0.998  0.998  0.998
     eigenvectors (columns):
       0.495  0.858  0.000  0.067  0.116
       0.055 -0.094  0.576 -0.406  0.701
      -0.110 -0.000  0.579  0.808 -0.000
      -0.858  0.496 -0.000 -0.117  0.067
      -0.055 -0.094 -0.576  0.406  0.701
     occupation matrix ns (before diag.):
       0.997  0.000  0.000  0.000  0.000
       0.000  0.998 -0.000  0.000  0.000
       0.000 -0.000  0.998 -0.000  0.000
       0.000  0.000 -0.000  0.997 -0.000
       0.000  0.000  0.000 -0.000  0.998
     SPIN  2
     eigenvalues:
       0.087  0.087  0.155  0.157  0.213
     eigenvectors (columns):
       0.865 -0.500 -0.018 -0.032  0.000
       0.026  0.014 -0.409  0.707 -0.576
      -0.000 -0.029  0.815 -0.000 -0.579
       0.500  0.865  0.031 -0.018 -0.000
       0.026 -0.014  0.409  0.707  0.576
     occupation matrix ns (before diag.):
       0.087 -0.001 -0.001 -0.000 -0.002
      -0.001  0.175  0.019 -0.002 -0.018
      -0.001  0.019  0.174  0.002 -0.019
      -0.000 -0.002  0.002  0.087 -0.000
      -0.002 -0.018 -0.019 -0.000  0.175
     --------------------- ATOM   39 ----------------------
     Tr[ns] (up, down, total) =   4.98865  0.69591  5.68456
     Atomic magnetic moment =   4.29275
     SPIN  1
     eigenvalues:
       0.997  0.997  0.998  0.998  0.998
     eigenvectors (columns):
      -0.496  0.859  0.002 -0.065  0.112
      -0.056 -0.092 -0.574  0.408  0.701
       0.104 -0.000 -0.583 -0.806 -0.000
       0.859  0.496 -0.003  0.113  0.065
       0.056 -0.092  0.574 -0.408  0.701
     occupation matrix ns (before diag.):
       0.997  0.000  0.000  0.000  0.000
       0.000  0.998 -0.000  0.000  0.000
       0.000 -0.000  0.998 -0.000  0.000
       0.000  0.000 -0.000  0.997 -0.000
       0.000  0.000  0.000 -0.000  0.998
     SPIN  2
     eigenvalues:
       0.087  0.087  0.154  0.155  0.213
     eigenvectors (columns):
      -0.865 -0.500  0.030 -0.018  0.000
      -0.025  0.014 -0.707 -0.408 -0.577
       0.000 -0.029 -0.000  0.816 -0.577
      -0.500  0.865  0.018  0.031 -0.000
      -0.025 -0.014 -0.707  0.408  0.577
     occupation matrix ns (before diag.):
       0.087 -0.001 -0.001 -0.000 -0.002
      -0.001  0.174  0.019 -0.002 -0.020
      -0.001  0.019  0.174  0.002 -0.019
      -0.000 -0.002  0.002  0.087  0.000
      -0.002 -0.020 -0.019  0.000  0.174
     --------------------- ATOM   40 ----------------------
     Tr[ns] (up, down, total) =   4.98866  0.69908  5.68774
     Atomic magnetic moment =   4.28958
     SPIN  1
     eigenvalues:
       0.997  0.997  0.998  0.998  0.998
     eigenvectors (columns):
       0.495  0.858  0.000  0.067  0.116
      -0.110 -0.000  0.579  0.808 -0.000
       0.055 -0.094  0.576 -0.406  0.701
       0.858 -0.496  0.000  0.117 -0.067
      -0.055 -0.094 -0.576  0.406  0.701
     occupation matrix ns (before diag.):
       0.997  0.000  0.000 -0.000  0.000
       0.000  0.998 -0.000  0.000  0.000
       0.000 -0.000  0.998 -0.000  0.000
      -0.000  0.000 -0.000  0.997  0.000
       0.000  0.000  0.000  0.000  0.998
     SPIN  2
     eigenvalues:
       0.087  0.087  0.155  0.157  0.213
     eigenvectors (columns):
      -0.865  0.500  0.018  0.032  0.000
       0.000  0.029 -0.815  0.000 -0.579
      -0.026 -0.014  0.409 -0.707 -0.576
       0.500  0.865  0.031 -0.018  0.000
      -0.026  0.014 -0.409 -0.707  0.576
     occupation matrix ns (before diag.):
       0.087 -0.001 -0.001  0.000 -0.002
      -0.001  0.174  0.019 -0.002 -0.019
      -0.001  0.019  0.175  0.002 -0.018
       0.000 -0.002  0.002  0.087  0.000
      -0.002 -0.019 -0.018  0.000  0.175
     --------------------- ATOM   41 ----------------------
     Tr[ns] (up, down, total) =   4.98865  0.69591  5.68456
     Atomic magnetic moment =   4.29275
     SPIN  1
     eigenvalues:
       0.997  0.997  0.998  0.998  0.998
     eigenvectors (columns):
       0.991 -0.000 -0.004  0.130 -0.000
      -0.056 -0.092 -0.574  0.408  0.701
      -0.056  0.092 -0.574  0.408 -0.701
       0.000  0.992 -0.000  0.000  0.130
      -0.104  0.000  0.583  0.806 -0.000
     occupation matrix ns (before diag.):
       0.997  0.000  0.000 -0.000  0.000
       0.000  0.998 -0.000  0.000  0.000
       0.000 -0.000  0.998 -0.000  0.000
      -0.000  0.000 -0.000  0.997 -0.000
       0.000  0.000  0.000 -0.000  0.998
     SPIN  2
     eigenvalues:
       0.087  0.087  0.154  0.155  0.213
     eigenvectors (columns):
      -0.000  0.999  0.000 -0.035 -0.000
      -0.025  0.014 -0.707  0.408 -0.577
       0.025  0.014  0.707  0.408 -0.577
      -0.999 -0.000  0.035 -0.000 -0.000
      -0.000  0.029 -0.000  0.816  0.577
     occupation matrix ns (before diag.):
       0.087 -0.001 -0.001 -0.000 -0.002
      -0.001  0.174  0.020 -0.002 -0.019
      -0.001  0.020  0.174  0.002 -0.019
      -0.000 -0.002  0.002  0.087 -0.000
      -0.002 -0.019 -0.019 -0.000  0.174
     --------------------- ATOM   42 ----------------------
     Tr[ns] (up, down, total) =   4.98866  0.69938  5.68803
     Atomic magnetic moment =   4.28928
     SPIN  1
     eigenvalues:
       0.997  0.997  0.998  0.998  0.998
     eigenvectors (columns):
       0.495  0.858  0.001 -0.067 -0.117
      -0.109 -0.000  0.591 -0.800  0.000
       0.055 -0.096  0.571  0.414 -0.701
       0.858 -0.495  0.001 -0.116  0.068
      -0.055 -0.096 -0.571 -0.414 -0.701
     occupation matrix ns (before diag.):
       0.997  0.000  0.000 -0.000  0.000
       0.000  0.998 -0.000  0.000  0.000
       0.000 -0.000  0.998 -0.000  0.000
      -0.000  0.000 -0.000  0.997  0.000
       0.000  0.000  0.000  0.000  0.998
     SPIN  2
     eigenvalues:
       0.087  0.087  0.155  0.157  0.213
     eigenvectors (columns):
      -0.865  0.500  0.018  0.032  0.000
       0.000  0.029 -0.816  0.000 -0.577
      -0.026 -0.014  0.408 -0.707 -0.577
       0.500  0.865  0.031 -0.018  0.001
      -0.026  0.014 -0.408 -0.707  0.577
     occupation matrix ns (before diag.):
       0.087 -0.001 -0.001  0.000 -0.002
      -0.001  0.174  0.020 -0.002 -0.020
      -0.001  0.020  0.175  0.002 -0.018
       0.000 -0.002  0.002  0.087  0.000
      -0.002 -0.020 -0.018  0.000  0.175
     --------------------- ATOM   43 ----------------------
     Tr[ns] (up, down, total) =   4.98866  0.69938  5.68803
     Atomic magnetic moment =   4.28928
     SPIN  1
     eigenvalues:
       0.997  0.997  0.998  0.998  0.998
     eigenvectors (columns):
       0.991 -0.000 -0.001 -0.134 -0.000
      -0.055 -0.096  0.571 -0.414  0.701
      -0.055  0.096  0.571 -0.414 -0.701
       0.000  0.991  0.000 -0.000  0.135
      -0.109  0.000 -0.591 -0.800 -0.000
     occupation matrix ns (before diag.):
       0.997  0.000  0.000 -0.000  0.000
       0.000  0.998 -0.000  0.000  0.000
       0.000 -0.000  0.998 -0.000  0.000
      -0.000  0.000 -0.000  0.997 -0.000
       0.000  0.000  0.000 -0.000  0.998
     SPIN  2
     eigenvalues:
       0.087  0.087  0.155  0.157  0.213
     eigenvectors (columns):
       0.000 -0.999  0.036  0.000 -0.001
       0.026 -0.014 -0.408 -0.707 -0.577
      -0.026 -0.014 -0.408  0.707 -0.577
       0.999  0.000  0.000  0.037 -0.000
       0.000 -0.029 -0.816 -0.000  0.577
     occupation matrix ns (before diag.):
       0.087 -0.001 -0.001 -0.000 -0.002
      -0.001  0.175  0.018 -0.002 -0.020
      -0.001  0.018  0.175  0.002 -0.020
      -0.000 -0.002  0.002  0.087 -0.000
      -0.002 -0.020 -0.020 -0.000  0.174
     --------------------- ATOM   44 ----------------------
     Tr[ns] (up, down, total) =   4.98866  0.69938  5.68803
     Atomic magnetic moment =   4.28928
     SPIN  1
     eigenvalues:
       0.997  0.997  0.998  0.998  0.998
     eigenvectors (columns):
       0.495  0.858  0.001 -0.067 -0.117
       0.055 -0.096  0.571  0.414 -0.701
      -0.109 -0.000  0.591 -0.800  0.000
      -0.858  0.495 -0.001  0.116 -0.068
      -0.055 -0.096 -0.571 -0.414 -0.701
     occupation matrix ns (before diag.):
       0.997  0.000  0.000  0.000  0.000
       0.000  0.998 -0.000  0.000  0.000
       0.000 -0.000  0.998 -0.000  0.000
       0.000  0.000 -0.000  0.997 -0.000
       0.000  0.000  0.000 -0.000  0.998
     SPIN  2
     eigenvalues:
       0.087  0.087  0.155  0.157  0.213
     eigenvectors (columns):
       0.865 -0.500 -0.018 -0.032  0.000
       0.026  0.014 -0.408  0.707 -0.577
      -0.000 -0.029  0.816 -0.000 -0.577
       0.500  0.865  0.031 -0.018 -0.001
       0.026 -0.014  0.408  0.707  0.577
     occupation matrix ns (before diag.):
       0.087 -0.001 -0.001 -0.000 -0.002
      -0.001  0.175  0.020 -0.002 -0.018
      -0.001  0.020  0.174  0.002 -0.020
      -0.000 -0.002  0.002  0.087 -0.000
[...]
     atom   41 type  2   force =     0.00000260    0.00000157   -0.00000118
     atom   42 type  2   force =     0.00000366   -0.00000109    0.00000011
     atom   43 type  2   force =     0.00000405   -0.00000292   -0.00000124
     atom   44 type  2   force =    -0.00000308    0.00000498   -0.00000126
     atom   45 type  2   force =    -0.00000292    0.00000251   -0.00000084
     atom   46 type  2   force =     0.00000001    0.00000063   -0.00000109
     atom   47 type  2   force =     0.00000354    0.00000014   -0.00000301
     atom   48 type  2   force =    -0.00000101    0.00000235    0.00000112
     atom   49 type  3   force =    -0.00000439   -0.00000395   -0.00000199
     atom   50 type  3   force =    -0.00000307   -0.00000400    0.00000158
     atom   51 type  3   force =    -0.00000429   -0.00000400   -0.00000170
     atom   52 type  3   force =     0.00000232   -0.00000029   -0.00000170
     atom   53 type  3   force =    -0.00000516   -0.00000632   -0.00000518
     atom   54 type  3   force =    -0.00000244   -0.00000027   -0.00000125
     atom   55 type  3   force =     0.00000393   -0.00000026   -0.00000064
     atom   56 type  3   force =    -0.00000067   -0.00000162    0.00000166
     atom   57 type  3   force =     0.00000093    0.00000345   -0.00000012
     atom   58 type  3   force =     0.00000362    0.00000416    0.00000103
     atom   59 type  3   force =    -0.00000084    0.00000189    0.00000133
     atom   60 type  3   force =     0.00000158    0.00000203    0.00000147
     atom   61 type  3   force =     0.00000149   -0.00000081    0.00000390
     atom   62 type  3   force =     0.00000361    0.00000405   -0.00000104
     atom   63 type  3   force =     0.00000376   -0.00000140    0.00000053
     atom   64 type  3   force =    -0.00000123    0.00000587    0.00000118
     The core correction contribution to forces
     atom    1 type  1   force =    -0.00000035   -0.00000047   -0.00000035
     atom    2 type  1   force =     0.00000023    0.00000021   -0.00000003
     atom    3 type  1   force =     0.00000003   -0.00000009    0.00000002
     atom    4 type  1   force =    -0.00000022   -0.00000007   -0.00000001
     atom    5 type  1   force =    -0.00000013   -0.00000001   -0.00000003
     atom    6 type  1   force =    -0.00000003    0.00000001   -0.00000007
     atom    7 type  1   force =    -0.00000020   -0.00000004   -0.00000000
     atom    8 type  1   force =     0.00000005   -0.00000001   -0.00000026
     atom    9 type  1   force =    -0.00000012   -0.00000015   -0.00000010
     atom   10 type  1   force =     0.00000004    0.00000021    0.00000001
     atom   11 type  1   force =    -0.00000005    0.00000022    0.00000013
     atom   12 type  1   force =    -0.00000001   -0.00000011   -0.00000009
     atom   13 type  1   force =     0.00000023   -0.00000001    0.00000023
     atom   14 type  1   force =    -0.00000014   -0.00000026   -0.00000004
     atom   15 type  1   force =    -0.00000008    0.00000019    0.00000001
     atom   16 type  1   force =     0.00000016   -0.00000005    0.00000019
     atom   17 type  1   force =    -0.00000000   -0.00000014    0.00000005
     atom   18 type  1   force =     0.00000007   -0.00000019   -0.00000022
     atom   19 type  1   force =    -0.00000018    0.00000005   -0.00000017
     atom   20 type  1   force =     0.00000011    0.00000011    0.00000004
     atom   21 type  1   force =    -0.00000019    0.00000000   -0.00000026
     atom   22 type  1   force =     0.00000005    0.00000026    0.00000010
     atom   23 type  1   force =     0.00000004   -0.00000024   -0.00000007
     atom   24 type  1   force =    -0.00000013   -0.00000026   -0.00000002
     atom   25 type  1   force =    -0.00000002    0.00000003    0.00000020
     atom   26 type  1   force =     0.00000014    0.00000016    0.00000009
     atom   27 type  1   force =     0.00000006   -0.00000001    0.00000008
     atom   28 type  1   force =    -0.00000001    0.00000009    0.00000001
     atom   29 type  1   force =    -0.00000002    0.00000010    0.00000020
     atom   30 type  1   force =     0.00000027    0.00000002    0.00000001
     atom   31 type  1   force =     0.00000007    0.00000001    0.00000002
     atom   32 type  1   force =     0.00000034    0.00000047    0.00000037
     atom   33 type  2   force =    -0.00000019   -0.00000009    0.00000002
     atom   34 type  2   force =     0.00000001   -0.00000006   -0.00000000
     atom   35 type  2   force =     0.00000015   -0.00000001   -0.00000003
     atom   36 type  2   force =    -0.00000015   -0.00000001    0.00000002
     atom   37 type  2   force =     0.00000003   -0.00000002   -0.00000002
     atom   38 type  2   force =     0.00000011   -0.00000008   -0.00000001
     atom   39 type  2   force =    -0.00000013    0.00000006    0.00000008
     atom   40 type  2   force =    -0.00000001   -0.00000001   -0.00000001
     atom   41 type  2   force =     0.00000015    0.00000006   -0.00000005
     atom   42 type  2   force =    -0.00000000   -0.00000002   -0.00000005
     atom   43 type  2   force =    -0.00000000   -0.00000004   -0.00000003
     atom   44 type  2   force =    -0.00000009    0.00000008   -0.00000006
     atom   45 type  2   force =    -0.00000001   -0.00000000    0.00000001
     atom   46 type  2   force =     0.00000001    0.00000005    0.00000006
     atom   47 type  2   force =     0.00000015    0.00000001    0.00000004
     atom   48 type  2   force =    -0.00000000    0.00000007    0.00000006
     atom   49 type  3   force =    -0.00000005   -0.00000008   -0.00000002
     atom   50 type  3   force =    -0.00000014   -0.00000006   -0.00000003
     atom   51 type  3   force =    -0.00000005   -0.00000009   -0.00000007
     atom   52 type  3   force =     0.00000019   -0.00000005    0.00000003
     atom   53 type  3   force =    -0.00000012   -0.00000017   -0.00000009
     atom   54 type  3   force =    -0.00000015    0.00000009   -0.00000008
     atom   55 type  3   force =     0.00000018    0.00000004   -0.00000004
     atom   56 type  3   force =    -0.00000008   -0.00000002    0.00000003
     atom   57 type  3   force =     0.00000004    0.00000005   -0.00000001
     atom   58 type  3   force =     0.00000011    0.00000002    0.00000006
     atom   59 type  3   force =    -0.00000005    0.00000002   -0.00000001
     atom   60 type  3   force =     0.00000004   -0.00000001   -0.00000001
     atom   61 type  3   force =     0.00000010    0.00000006    0.00000000
     atom   62 type  3   force =     0.00000008    0.00000011   -0.00000002
     atom   63 type  3   force =     0.00000006    0.00000001    0.00000010
     atom   64 type  3   force =    -0.00000014    0.00000005    0.00000012
     The Hubbard contrib.    to forces
     atom    1 type  1   force =     0.00000000    0.00000000    0.00000000
     atom    2 type  1   force =     0.00000000    0.00000000    0.00000000
     atom    3 type  1   force =     0.00000000    0.00000000    0.00000000
     atom    4 type  1   force =     0.00000000    0.00000000    0.00000000
     atom    5 type  1   force =     0.00000000    0.00000000    0.00000000
     atom    6 type  1   force =     0.00000000    0.00000000    0.00000000
     atom    7 type  1   force =     0.00000000    0.00000000    0.00000000
     atom    8 type  1   force =     0.00000000    0.00000000    0.00000000
     atom    9 type  1   force =     0.00000000    0.00000000    0.00000000
     atom   10 type  1   force =     0.00000000    0.00000000    0.00000000
     atom   11 type  1   force =     0.00000000    0.00000000    0.00000000
     atom   12 type  1   force =     0.00000000    0.00000000    0.00000000
     atom   13 type  1   force =     0.00000000    0.00000000    0.00000000
     atom   14 type  1   force =     0.00000000    0.00000000    0.00000000
     atom   15 type  1   force =     0.00000000    0.00000000    0.00000000
     atom   16 type  1   force =     0.00000000    0.00000000    0.00000000
     atom   17 type  1   force =     0.00000000    0.00000000    0.00000000
     atom   18 type  1   force =     0.00000000    0.00000000    0.00000000
     atom   19 type  1   force =     0.00000000    0.00000000    0.00000000
     atom   20 type  1   force =     0.00000000    0.00000000    0.00000000
     atom   21 type  1   force =     0.00000000    0.00000000    0.00000000
     atom   22 type  1   force =     0.00000000    0.00000000    0.00000000
     atom   23 type  1   force =     0.00000000    0.00000000    0.00000000
     atom   24 type  1   force =     0.00000000    0.00000000    0.00000000
     atom   25 type  1   force =     0.00000000    0.00000000    0.00000000
     atom   26 type  1   force =     0.00000000    0.00000000    0.00000000
     atom   27 type  1   force =     0.00000000    0.00000000    0.00000000
     atom   28 type  1   force =     0.00000000    0.00000000    0.00000000
     atom   29 type  1   force =     0.00000000    0.00000000    0.00000000
     atom   30 type  1   force =     0.00000000    0.00000000    0.00000000
     atom   31 type  1   force =     0.00000000    0.00000000    0.00000000
     atom   32 type  1   force =     0.00000000    0.00000000    0.00000000
     atom   33 type  2   force =     0.00000000    0.00000000   -0.00000000
     atom   34 type  2   force =     0.00000035    0.00000000   -0.00000035
     atom   35 type  2   force =    -0.00000000    0.00000000    0.00000000
     atom   36 type  2   force =     0.00000000    0.00000035   -0.00000035
     atom   37 type  2   force =     0.00000012    0.00000012   -0.00000002
     atom   38 type  2   force =    -0.00000002    0.00000012    0.00000012
     atom   39 type  2   force =     0.00000000    0.00000000    0.00000000
     atom   40 type  2   force =     0.00000012   -0.00000002    0.00000012
     atom   41 type  2   force =    -0.00000000   -0.00000000    0.00000000
     atom   42 type  2   force =    -0.00000035    0.00000000    0.00000035
     atom   43 type  2   force =    -0.00000035    0.00000035    0.00000000
     atom   44 type  2   force =     0.00000000   -0.00000035    0.00000035
     atom   45 type  2   force =     0.00000035   -0.00000035    0.00000000
     atom   46 type  2   force =    -0.00000012    0.00000002   -0.00000012
     atom   47 type  2   force =     0.00000002   -0.00000012   -0.00000012
     atom   48 type  2   force =    -0.00000012   -0.00000012    0.00000002
     atom   49 type  3   force =     0.00000028    0.00000028    0.00000001
     atom   50 type  3   force =    -0.00000000    0.00000000    0.00000000
     atom   51 type  3   force =     0.00000028    0.00000001    0.00000028
     atom   52 type  3   force =     0.00000000   -0.00000000    0.00000000
     atom   53 type  3   force =     0.00000001    0.00000028    0.00000028
     atom   54 type  3   force =    -0.00000000    0.00000000    0.00000000
     atom   55 type  3   force =    -0.00000000    0.00000012   -0.00000012
     atom   56 type  3   force =    -0.00000012    0.00000012    0.00000000
     atom   57 type  3   force =     0.00000012    0.00000000   -0.00000012
     atom   58 type  3   force =     0.00000000    0.00000000   -0.00000000
     atom   59 type  3   force =    -0.00000012   -0.00000000    0.00000012
     atom   60 type  3   force =     0.00000012   -0.00000012    0.00000000
     atom   61 type  3   force =    -0.00000000   -0.00000012    0.00000012
     atom   62 type  3   force =    -0.00000028   -0.00000028   -0.00000001
     atom   63 type  3   force =    -0.00000028   -0.00000001   -0.00000028
     atom   64 type  3   force =    -0.00000001   -0.00000028   -0.00000028
     The SCF correction term to forces
     atom    1 type  1   force =    -0.00000208    0.00000132   -0.00000072
     atom    2 type  1   force =     0.00000423    0.00000199    0.00000061
     atom    3 type  1   force =    -0.00000103    0.00000242    0.00000285
     atom    4 type  1   force =     0.00000394    0.00000106   -0.00000222
     atom    5 type  1   force =     0.00000376   -0.00000079    0.00000143
     atom    6 type  1   force =     0.00000178   -0.00000149    0.00000043
     atom    7 type  1   force =     0.00000383   -0.00000008   -0.00000155
     atom    8 type  1   force =    -0.00000157    0.00000024    0.00000199
     atom    9 type  1   force =    -0.00000073    0.00000262    0.00000136
     atom   10 type  1   force =     0.00000506   -0.00000025    0.00000124
     atom   11 type  1   force =     0.00000116   -0.00000015    0.00000398
     atom   12 type  1   force =    -0.00000014    0.00000160    0.00000138
     atom   13 type  1   force =     0.00000006    0.00000141    0.00000175
     atom   14 type  1   force =    -0.00000039    0.00000293   -0.00000258
     atom   15 type  1   force =    -0.00000074    0.00000129    0.00000468
     atom   16 type  1   force =     0.00000262   -0.00000049    0.00000077
     atom   17 type  1   force =    -0.00000419   -0.00000074   -0.00000025
     atom   18 type  1   force =     0.00000046   -0.00000104   -0.00000327
     atom   19 type  1   force =    -0.00000209    0.00000000   -0.00000218
     atom   20 type  1   force =     0.00000013   -0.00000160   -0.00000002
     atom   21 type  1   force =    -0.00000386   -0.00000113   -0.00000080
     atom   22 type  1   force =     0.00000136   -0.00000279   -0.00000111
     atom   23 type  1   force =    -0.00000164   -0.00000269   -0.00000243
     atom   24 type  1   force =    -0.00000343   -0.00000229   -0.00000142
     atom   25 type  1   force =     0.00000130   -0.00000084   -0.00000386
     atom   26 type  1   force =    -0.00000038   -0.00000146   -0.00000089
     atom   27 type  1   force =    -0.00000222    0.00000207   -0.00000120
     atom   28 type  1   force =    -0.00000394    0.00000027    0.00000191
     atom   29 type  1   force =     0.00000100    0.00000071   -0.00000424
     atom   30 type  1   force =    -0.00000439   -0.00000056    0.00000185
     atom   31 type  1   force =     0.00000071    0.00000059   -0.00000062
     atom   32 type  1   force =     0.00000140   -0.00000250    0.00000292
     atom   33 type  2   force =     0.00000029   -0.00000035    0.00000318
     atom   34 type  2   force =    -0.00000001    0.00000344    0.00000247
     atom   35 type  2   force =    -0.00000061    0.00000338   -0.00000415
     atom   36 type  2   force =     0.00000242    0.00000152   -0.00000198
     atom   37 type  2   force =    -0.00000233    0.00000298   -0.00000327
     atom   38 type  2   force =    -0.00000367   -0.00000057   -0.00000053
     atom   39 type  2   force =     0.00000441   -0.00000251   -0.00000328
     atom   40 type  2   force =    -0.00000401   -0.00000433    0.00000000
     atom   41 type  2   force =    -0.00000111   -0.00000088    0.00000166
     atom   42 type  2   force =    -0.00000019    0.00000022   -0.00000433
     atom   43 type  2   force =    -0.00000075   -0.00000116    0.00000197
     atom   44 type  2   force =     0.00000169   -0.00000146   -0.00000214
     atom   45 type  2   force =    -0.00000108    0.00000018    0.00000302
     atom   46 type  2   force =     0.00000159   -0.00000008    0.00000231
     atom   47 type  2   force =    -0.00000132   -0.00000003    0.00000469
     atom   48 type  2   force =     0.00000317   -0.00000139   -0.00000226
     atom   49 type  3   force =     0.00000092    0.00000105    0.00000349
     atom   50 type  3   force =     0.00000042    0.00000405   -0.00000403
     atom   51 type  3   force =     0.00000075    0.00000353   -0.00000215
     atom   52 type  3   force =     0.00000062   -0.00000057    0.00000428
     atom   53 type  3   force =     0.00000430    0.00000288    0.00000242
     atom   54 type  3   force =     0.00000099    0.00000160    0.00000174
     atom   55 type  3   force =    -0.00000187    0.00000048    0.00000107
     atom   56 type  3   force =     0.00000168    0.00000096   -0.00000249
     atom   57 type  3   force =    -0.00000237   -0.00000376    0.00000027
     atom   58 type  3   force =    -0.00000275   -0.00000459   -0.00000158
     atom   59 type  3   force =     0.00000212   -0.00000140   -0.00000197
     atom   60 type  3   force =    -0.00000342   -0.00000297   -0.00000380
     atom   61 type  3   force =     0.00000025    0.00000257   -0.00000535
     atom   62 type  3   force =     0.00000080    0.00000009    0.00000260
     atom   63 type  3   force =     0.00000031    0.00000171    0.00000380
     atom   64 type  3   force =    -0.00000128   -0.00000378    0.00000289

     Total force =     0.000013     Total SCF correction =     0.000032
     SCF correction compared to forces is large: reduce conv_thr to get better values

     Writing all to output data dir ./out/NiO-cubic.save/

     init_run     :      3.65s CPU      3.96s WALL (       1 calls)
     electrons    :    225.23s CPU    233.12s WALL (       1 calls)
     forces       :      9.31s CPU      9.40s WALL (       1 calls)

     Called by init_run:
     wfcinit      :      2.84s CPU      3.08s WALL (       1 calls)
     wfcinit:atom :      0.02s CPU      0.04s WALL (       2 calls)
     wfcinit:wfcr :      2.34s CPU      2.38s WALL (       2 calls)
     potinit      :      0.22s CPU      0.26s WALL (       1 calls)
     hinit0       :      0.47s CPU      0.48s WALL (       1 calls)

     Called by electrons:
     c_bands      :    208.73s CPU    215.82s WALL (      28 calls)
     sum_band     :     13.28s CPU     13.33s WALL (      28 calls)
     v_of_rho     :      2.33s CPU      2.46s WALL (      29 calls)
     v_h          :      0.11s CPU      0.11s WALL (      29 calls)
     v_xc         :      2.30s CPU      2.41s WALL (      30 calls)
     mix_rho      :      0.68s CPU      0.74s WALL (      28 calls)

     Called by c_bands:
     init_us_2    :      2.76s CPU      2.80s WALL (     120 calls)
     init_us_2:cp :      2.76s CPU      2.80s WALL (     120 calls)
     regterg      :    202.81s CPU    209.67s WALL (      56 calls)

     Called by sum_band:
     sum_band:wei :      0.01s CPU      0.01s WALL (      28 calls)
     sum_band:loo :     10.80s CPU     10.83s WALL (      28 calls)
     sum_band:buf :      0.72s CPU      0.72s WALL (      56 calls)
     sum_band:ini :      1.31s CPU      1.31s WALL (      56 calls)

     Called by *egterg:
     rdiaghg      :     41.14s CPU     41.16s WALL (     226 calls)
     regterg:over :     16.49s CPU     16.52s WALL (     170 calls)
     regterg:upda :      9.77s CPU      9.79s WALL (     170 calls)
     regterg:last :     17.62s CPU     17.65s WALL (     104 calls)
     h_psi        :    109.65s CPU    110.09s WALL (     228 calls)
     g_psi        :      0.40s CPU      0.40s WALL (     170 calls)

     Called by h_psi:
     h_psi:calbec :     17.73s CPU     17.78s WALL (     228 calls)
     vloc_psi     :     39.73s CPU     39.91s WALL (     228 calls)
     add_vuspsi   :     15.70s CPU     15.81s WALL (     228 calls)
     vhpsi        :     34.91s CPU     35.00s WALL (     228 calls)

     General routines
     calbec       :     29.49s CPU     29.58s WALL (    2062 calls)
     fft          :      1.17s CPU      1.21s WALL (     445 calls)
     ffts         :      0.09s CPU      0.09s WALL (      56 calls)
     fftw         :     44.00s CPU     44.17s WALL (   69212 calls)
     davcio       :      0.01s CPU      0.01s WALL (       2 calls)

     Parallel routines

     Hubbard U routines
     new_ns       :      2.26s CPU      2.27s WALL (      28 calls)
     vhpsi        :     34.91s CPU     35.00s WALL (     228 calls)
     force_hub    :      7.59s CPU      7.62s WALL (       1 calls)

     PWSCF        :   3m58.93s CPU   4m 7.84s WALL


   This run was terminated on:  15:53:52  17Oct2022            

=------------------------------------------------------------------------------=
   JOB DONE.
=------------------------------------------------------------------------------=
