
     Program PWSCF v.7.0 starts on 17Oct2022 at 15:42:32 

     This program is part of the open-source Quantum ESPRESSO suite
     for quantum simulation of materials; please cite
         "P. Giannozzi et al., J. Phys.:Condens. Matter 21 395502 (2009);
         "P. Giannozzi et al., J. Phys.:Condens. Matter 29 465901 (2017);
         "P. Giannozzi et al., J. Chem. Phys. 152 154105 (2020);
          URL http://www.quantum-espresso.org", 
     in publications or presentations arising from this work. More details at
     http://www.quantum-espresso.org/quote

     Parallel version (MPI), running on    32 processors

     MPI processes distributed on     1 nodes
     R & G space division:  proc/nbgrp/npool/nimage =      32
     251176 MiB available memory on the printing compute node when the environment starts

     Waiting for input...
     Reading input from standard input

     Current dimensions of program PWSCF are:
     Max number of different atomic species (ntypx) = 10
     Max number of k-points (npk) =  40000
     Max angular momentum in pseudopotentials (lmaxx) =  4

     IMPORTANT: XC functional enforced from input :
     Exchange-correlation= PBE
                           (   1   4   3   4   0   0   0)
     Any further DFT definition will be discarded
     Please, verify this is what you really want


     gamma-point specific algorithms are used
     Found identity + ( -0.2500 -0.2500 -0.5000) symmetry
     This is a supercell, fractional translations are disabled

     Subspace diagonalization in iterative solution of the eigenvalue problem:
     a serial algorithm will be used


     Parallelization info
     --------------------
     sticks:   dense  smooth     PW     G-vecs:    dense   smooth      PW
     Min         306     306     75                22970    22970    2868
     Max         308     308     78                22980    22980    2882
     Sum        9841    9841   2449               735263   735263   91911

     Using Slab Decomposition



     bravais-lattice index     =            8
     lattice parameter (alat)  =      15.7622  a.u.
     unit-cell volume          =    3916.0705 (a.u.)^3
     number of atoms/cell      =           64
     number of atomic types    =            3
     number of electrons       =       768.00
     number of Kohn-Sham states=          448
     kinetic-energy cutoff     =     124.5780  Ry
     charge density cutoff     =     498.3120  Ry
     scf convergence threshold =      1.0E-08
     mixing beta               =       0.2500
     number of iterations used =            8  plain     mixing
     Exchange-correlation= PBE
                           (   1   4   3   4   0   0   0)

     celldm(1)=  15.762200  celldm(2)=   1.000000  celldm(3)=   1.000000
     celldm(4)=   0.000000  celldm(5)=   0.000000  celldm(6)=   0.000000

     crystal axes: (cart. coord. in units of alat)
               a(1) = (   1.000000   0.000000   0.000000 )  
               a(2) = (   0.000000   1.000000   0.000000 )  
               a(3) = (   0.000000   0.000000   1.000000 )  

     reciprocal axes: (cart. coord. in units 2 pi/alat)
               b(1) = (  1.000000  0.000000  0.000000 )  
               b(2) = (  0.000000  1.000000  0.000000 )  
               b(3) = (  0.000000  0.000000  1.000000 )  


     PseudoPot. # 1 for O  read from file:
     /home/emil/Pseudo/nc-sr-04_pbe_stringent/O.upf
     MD5 check sum: 9db02a5ece9d56b81b65a73f8163743d
     Pseudo is Norm-conserving + core correction, Zval =  6.0
     Generated using ONCVPSP code by D. R. Hamann
     Using radial grid of  936 points,  5 beta functions with: 
                l(1) =   0
                l(2) =   0
                l(3) =   1
                l(4) =   1
                l(5) =   2

     PseudoPot. # 2 for Ni read from file:
     /home/emil/Pseudo/nc-sr-04_pbe_stringent/Ni.upf
     MD5 check sum: ff72d48937b3d9f5815e777d24fa1439
     Pseudo is Norm-conserving + core correction, Zval = 18.0
     Generated using ONCVPSP code by D. R. Hamann
     Using radial grid of 1372 points,  6 beta functions with: 
                l(1) =   0
                l(2) =   0
                l(3) =   1
                l(4) =   1
                l(5) =   2
                l(6) =   2

     PseudoPot. # 3 for Ni read from file:
     /home/emil/Pseudo/nc-sr-04_pbe_stringent/Ni.upf
     MD5 check sum: ff72d48937b3d9f5815e777d24fa1439
     Pseudo is Norm-conserving + core correction, Zval = 18.0
     Generated using ONCVPSP code by D. R. Hamann
     Using radial grid of 1372 points,  6 beta functions with: 
                l(1) =   0
                l(2) =   0
                l(3) =   1
                l(4) =   1
                l(5) =   2
                l(6) =   2

     atomic species   valence    mass     pseudopotential
        O              6.00     1.00000     O ( 1.00)
        Ni            18.00     1.00000     Ni( 1.00)
        Ni1           18.00     1.00000     Ni( 1.00)

     Starting magnetic structure 
     atomic species   magnetization
        O            0.000
        Ni           1.000
        Ni1         -1.000


     Simplified LDA+U calculation (l_max = 2) with parameters (eV):
     atomic species    L          U    alpha       J0     beta
        Ni             2     6.5000   0.0000   0.0000   0.0000
        Ni1            2     6.5000   0.0000   0.0000   0.0000



     12 Sym. Ops., with inversion, found


                                    s                        frac. trans.

      isym =  1     identity                                     

 cryst.   s( 1) = (     1          0          0      )
                  (     0          1          0      )
                  (     0          0          1      )

 cart.    s( 1) = (  1.0000000  0.0000000  0.0000000 )
                  (  0.0000000  1.0000000  0.0000000 )
                  (  0.0000000  0.0000000  1.0000000 )


      isym =  2     180 deg rotation - cart. axis [1,-1,0]       

 cryst.   s( 2) = (     0         -1          0      )
                  (    -1          0          0      )
                  (     0          0         -1      )

 cart.    s( 2) = (  0.0000000 -1.0000000  0.0000000 )
                  ( -1.0000000  0.0000000  0.0000000 )
                  (  0.0000000  0.0000000 -1.0000000 )


      isym =  3     180 deg rotation - cart. axis [-1,0,1]       

 cryst.   s( 3) = (     0          0         -1      )
                  (     0         -1          0      )
                  (    -1          0          0      )

 cart.    s( 3) = (  0.0000000  0.0000000 -1.0000000 )
                  (  0.0000000 -1.0000000  0.0000000 )
                  ( -1.0000000  0.0000000  0.0000000 )


      isym =  4     180 deg rotation - cart. axis [0,1,-1]       

 cryst.   s( 4) = (    -1          0          0      )
                  (     0          0         -1      )
                  (     0         -1          0      )

 cart.    s( 4) = ( -1.0000000  0.0000000  0.0000000 )
                  (  0.0000000  0.0000000 -1.0000000 )
                  (  0.0000000 -1.0000000  0.0000000 )


      isym =  5     120 deg rotation - cart. axis [-1,-1,-1]     

 cryst.   s( 5) = (     0          0          1      )
                  (     1          0          0      )
                  (     0          1          0      )

 cart.    s( 5) = (  0.0000000  1.0000000  0.0000000 )
                  (  0.0000000  0.0000000  1.0000000 )
                  (  1.0000000  0.0000000  0.0000000 )


      isym =  6     120 deg rotation - cart. axis [1,1,1]        

 cryst.   s( 6) = (     0          1          0      )
                  (     0          0          1      )
                  (     1          0          0      )

 cart.    s( 6) = (  0.0000000  0.0000000  1.0000000 )
                  (  1.0000000  0.0000000  0.0000000 )
                  (  0.0000000  1.0000000  0.0000000 )


      isym =  7     inversion                                    

 cryst.   s( 7) = (    -1          0          0      )
                  (     0         -1          0      )
                  (     0          0         -1      )

 cart.    s( 7) = ( -1.0000000  0.0000000  0.0000000 )
                  (  0.0000000 -1.0000000  0.0000000 )
                  (  0.0000000  0.0000000 -1.0000000 )


      isym =  8     inv. 180 deg rotation - cart. axis [1,-1,0]  

 cryst.   s( 8) = (     0          1          0      )
                  (     1          0          0      )
                  (     0          0          1      )

 cart.    s( 8) = (  0.0000000  1.0000000  0.0000000 )
                  (  1.0000000  0.0000000  0.0000000 )
                  (  0.0000000  0.0000000  1.0000000 )


      isym =  9     inv. 180 deg rotation - cart. axis [-1,0,1]  

 cryst.   s( 9) = (     0          0          1      )
                  (     0          1          0      )
                  (     1          0          0      )

 cart.    s( 9) = (  0.0000000  0.0000000  1.0000000 )
                  (  0.0000000  1.0000000  0.0000000 )
                  (  1.0000000  0.0000000  0.0000000 )


      isym = 10     inv. 180 deg rotation - cart. axis [0,1,-1]  

 cryst.   s(10) = (     1          0          0      )
                  (     0          0          1      )
                  (     0          1          0      )

 cart.    s(10) = (  1.0000000  0.0000000  0.0000000 )
                  (  0.0000000  0.0000000  1.0000000 )
                  (  0.0000000  1.0000000  0.0000000 )


      isym = 11     inv. 120 deg rotation - cart. axis [-1,-1,-1]

 cryst.   s(11) = (     0          0         -1      )
                  (    -1          0          0      )
                  (     0         -1          0      )

 cart.    s(11) = (  0.0000000 -1.0000000  0.0000000 )
                  (  0.0000000  0.0000000 -1.0000000 )
                  ( -1.0000000  0.0000000  0.0000000 )


      isym = 12     inv. 120 deg rotation - cart. axis [1,1,1]   

 cryst.   s(12) = (     0         -1          0      )
                  (     0          0         -1      )
                  (    -1          0          0      )

 cart.    s(12) = (  0.0000000  0.0000000 -1.0000000 )
                  ( -1.0000000  0.0000000  0.0000000 )
                  (  0.0000000 -1.0000000  0.0000000 )


     point group D_3d (-3m) 
     there are  6 classes
     the character table:

       E     2C3   3C2'  i     2S6   3s_d 
A_1g   1.00  1.00  1.00  1.00  1.00  1.00
A_2g   1.00  1.00 -1.00  1.00  1.00 -1.00
E_g    2.00 -1.00  0.00  2.00 -1.00  0.00
A_1u   1.00  1.00  1.00 -1.00 -1.00 -1.00
A_2u   1.00  1.00 -1.00 -1.00 -1.00  1.00
E_u    2.00 -1.00  0.00 -2.00  1.00  0.00

     the symmetry operations in each class and the name of the first element:

     E        1
          identity                                               
     2C3      5    6
          120 deg rotation - cart. axis [-1,-1,-1]               
     3C2'     2    4    3
          180 deg rotation - cart. axis [1,-1,0]                 
     i        7
          inversion                                              
     2S6     11   12
          inv. 120 deg rotation - cart. axis [-1,-1,-1]          
     3s_d     8   10    9
          inv. 180 deg rotation - cart. axis [1,-1,0]            

   Cartesian axes

     site n.     atom                  positions (alat units)
         1           O   tau(   1) = (   0.2500000   0.2500000   0.2500000  )
         2           O   tau(   2) = (   0.0000000   0.0000000   0.7500000  )
         3           O   tau(   3) = (   0.2500000   0.0000000   0.5000000  )
         4           O   tau(   4) = (   0.5000000   0.0000000   0.2500000  )
         5           O   tau(   5) = (   0.0000000   0.2500000   0.5000000  )
         6           O   tau(   6) = (   0.5000000   0.2500000   0.0000000  )
         7           O   tau(   7) = (   0.0000000   0.5000000   0.2500000  )
         8           O   tau(   8) = (   0.2500000   0.5000000   0.0000000  )
         9           O   tau(   9) = (   0.7500000   0.2500000   0.7500000  )
        10           O   tau(  10) = (   0.5000000   0.5000000   0.7500000  )
        11           O   tau(  11) = (   0.7500000   0.5000000   0.5000000  )
        12           O   tau(  12) = (   0.2500000   0.7500000   0.7500000  )
        13           O   tau(  13) = (   0.5000000   0.7500000   0.5000000  )
        14           O   tau(  14) = (   0.7500000   0.7500000   0.2500000  )
        15           O   tau(  15) = (   0.7500000   0.0000000   0.0000000  )
        16           O   tau(  16) = (   0.0000000   0.7500000   0.0000000  )
        17           O   tau(  17) = (   0.0000000   0.0000000   0.2500000  )
        18           O   tau(  18) = (   0.2500000   0.0000000   0.0000000  )
        19           O   tau(  19) = (   0.0000000   0.2500000   0.0000000  )
        20           O   tau(  20) = (   0.2500000   0.2500000   0.7500000  )
        21           O   tau(  21) = (   0.5000000   0.2500000   0.5000000  )
        22           O   tau(  22) = (   0.7500000   0.2500000   0.2500000  )
        23           O   tau(  23) = (   0.2500000   0.5000000   0.5000000  )
        24           O   tau(  24) = (   0.5000000   0.5000000   0.2500000  )
        25           O   tau(  25) = (   0.7500000   0.5000000   0.0000000  )
        26           O   tau(  26) = (   0.2500000   0.7500000   0.2500000  )
        27           O   tau(  27) = (   0.5000000   0.7500000   0.0000000  )
        28           O   tau(  28) = (   0.5000000   0.0000000   0.7500000  )
        29           O   tau(  29) = (   0.7500000   0.0000000   0.5000000  )
        30           O   tau(  30) = (   0.0000000   0.5000000   0.7500000  )
        31           O   tau(  31) = (   0.0000000   0.7500000   0.5000000  )
        32           O   tau(  32) = (   0.7500000   0.7500000   0.7500000  )
        33           Ni  tau(  33) = (   0.0000000   0.0000000   0.0000000  )
        34           Ni  tau(  34) = (   0.2500000   0.0000000   0.7500000  )
        35           Ni  tau(  35) = (   0.5000000   0.0000000   0.5000000  )
        36           Ni  tau(  36) = (   0.0000000   0.2500000   0.7500000  )
        37           Ni  tau(  37) = (   0.2500000   0.2500000   0.5000000  )
        38           Ni  tau(  38) = (   0.5000000   0.2500000   0.2500000  )
        39           Ni  tau(  39) = (   0.0000000   0.5000000   0.5000000  )
        40           Ni  tau(  40) = (   0.2500000   0.5000000   0.2500000  )
        41           Ni  tau(  41) = (   0.5000000   0.5000000   0.0000000  )
        42           Ni  tau(  42) = (   0.7500000   0.0000000   0.2500000  )
        43           Ni  tau(  43) = (   0.7500000   0.2500000   0.0000000  )
        44           Ni  tau(  44) = (   0.0000000   0.7500000   0.2500000  )
        45           Ni  tau(  45) = (   0.2500000   0.7500000   0.0000000  )
        46           Ni  tau(  46) = (   0.7500000   0.5000000   0.7500000  )
        47           Ni  tau(  47) = (   0.5000000   0.7500000   0.7500000  )
        48           Ni  tau(  48) = (   0.7500000   0.7500000   0.5000000  )
        49           Ni1 tau(  49) = (   0.2500000   0.2500000   0.0000000  )
        50           Ni1 tau(  50) = (   0.0000000   0.0000000   0.5000000  )
        51           Ni1 tau(  51) = (   0.2500000   0.0000000   0.2500000  )
        52           Ni1 tau(  52) = (   0.5000000   0.0000000   0.0000000  )
        53           Ni1 tau(  53) = (   0.0000000   0.2500000   0.2500000  )
        54           Ni1 tau(  54) = (   0.0000000   0.5000000   0.0000000  )
        55           Ni1 tau(  55) = (   0.5000000   0.2500000   0.7500000  )
        56           Ni1 tau(  56) = (   0.7500000   0.2500000   0.5000000  )
        57           Ni1 tau(  57) = (   0.2500000   0.5000000   0.7500000  )
        58           Ni1 tau(  58) = (   0.5000000   0.5000000   0.5000000  )
        59           Ni1 tau(  59) = (   0.7500000   0.5000000   0.2500000  )
        60           Ni1 tau(  60) = (   0.2500000   0.7500000   0.5000000  )
        61           Ni1 tau(  61) = (   0.5000000   0.7500000   0.2500000  )
        62           Ni1 tau(  62) = (   0.7500000   0.7500000   0.0000000  )
        63           Ni1 tau(  63) = (   0.7500000   0.0000000   0.7500000  )
        64           Ni1 tau(  64) = (   0.0000000   0.7500000   0.7500000  )

   Crystallographic axes

     site n.     atom                  positions (cryst. coord.)
         1           O   tau(   1) = (  0.2500000  0.2500000  0.2500000  )
         2           O   tau(   2) = (  0.0000000  0.0000000  0.7500000  )
         3           O   tau(   3) = (  0.2500000  0.0000000  0.5000000  )
         4           O   tau(   4) = (  0.5000000  0.0000000  0.2500000  )
         5           O   tau(   5) = (  0.0000000  0.2500000  0.5000000  )
         6           O   tau(   6) = (  0.5000000  0.2500000  0.0000000  )
         7           O   tau(   7) = (  0.0000000  0.5000000  0.2500000  )
         8           O   tau(   8) = (  0.2500000  0.5000000  0.0000000  )
         9           O   tau(   9) = (  0.7500000  0.2500000  0.7500000  )
        10           O   tau(  10) = (  0.5000000  0.5000000  0.7500000  )
        11           O   tau(  11) = (  0.7500000  0.5000000  0.5000000  )
        12           O   tau(  12) = (  0.2500000  0.7500000  0.7500000  )
        13           O   tau(  13) = (  0.5000000  0.7500000  0.5000000  )
        14           O   tau(  14) = (  0.7500000  0.7500000  0.2500000  )
        15           O   tau(  15) = (  0.7500000  0.0000000  0.0000000  )
        16           O   tau(  16) = (  0.0000000  0.7500000  0.0000000  )
        17           O   tau(  17) = (  0.0000000  0.0000000  0.2500000  )
        18           O   tau(  18) = (  0.2500000  0.0000000  0.0000000  )
        19           O   tau(  19) = (  0.0000000  0.2500000  0.0000000  )
        20           O   tau(  20) = (  0.2500000  0.2500000  0.7500000  )
        21           O   tau(  21) = (  0.5000000  0.2500000  0.5000000  )
        22           O   tau(  22) = (  0.7500000  0.2500000  0.2500000  )
        23           O   tau(  23) = (  0.2500000  0.5000000  0.5000000  )
        24           O   tau(  24) = (  0.5000000  0.5000000  0.2500000  )
        25           O   tau(  25) = (  0.7500000  0.5000000  0.0000000  )
        26           O   tau(  26) = (  0.2500000  0.7500000  0.2500000  )
        27           O   tau(  27) = (  0.5000000  0.7500000  0.0000000  )
        28           O   tau(  28) = (  0.5000000  0.0000000  0.7500000  )
        29           O   tau(  29) = (  0.7500000  0.0000000  0.5000000  )
        30           O   tau(  30) = (  0.0000000  0.5000000  0.7500000  )
        31           O   tau(  31) = (  0.0000000  0.7500000  0.5000000  )
        32           O   tau(  32) = (  0.7500000  0.7500000  0.7500000  )
        33           Ni  tau(  33) = (  0.0000000  0.0000000  0.0000000  )
        34           Ni  tau(  34) = (  0.2500000  0.0000000  0.7500000  )
        35           Ni  tau(  35) = (  0.5000000  0.0000000  0.5000000  )
        36           Ni  tau(  36) = (  0.0000000  0.2500000  0.7500000  )
        37           Ni  tau(  37) = (  0.2500000  0.2500000  0.5000000  )
        38           Ni  tau(  38) = (  0.5000000  0.2500000  0.2500000  )
        39           Ni  tau(  39) = (  0.0000000  0.5000000  0.5000000  )
        40           Ni  tau(  40) = (  0.2500000  0.5000000  0.2500000  )
        41           Ni  tau(  41) = (  0.5000000  0.5000000  0.0000000  )
        42           Ni  tau(  42) = (  0.7500000  0.0000000  0.2500000  )
        43           Ni  tau(  43) = (  0.7500000  0.2500000  0.0000000  )
        44           Ni  tau(  44) = (  0.0000000  0.7500000  0.2500000  )
        45           Ni  tau(  45) = (  0.2500000  0.7500000  0.0000000  )
        46           Ni  tau(  46) = (  0.7500000  0.5000000  0.7500000  )
        47           Ni  tau(  47) = (  0.5000000  0.7500000  0.7500000  )
        48           Ni  tau(  48) = (  0.7500000  0.7500000  0.5000000  )
        49           Ni1 tau(  49) = (  0.2500000  0.2500000  0.0000000  )
        50           Ni1 tau(  50) = (  0.0000000  0.0000000  0.5000000  )
        51           Ni1 tau(  51) = (  0.2500000  0.0000000  0.2500000  )
        52           Ni1 tau(  52) = (  0.5000000  0.0000000  0.0000000  )
        53           Ni1 tau(  53) = (  0.0000000  0.2500000  0.2500000  )
        54           Ni1 tau(  54) = (  0.0000000  0.5000000  0.0000000  )
        55           Ni1 tau(  55) = (  0.5000000  0.2500000  0.7500000  )
        56           Ni1 tau(  56) = (  0.7500000  0.2500000  0.5000000  )
        57           Ni1 tau(  57) = (  0.2500000  0.5000000  0.7500000  )
        58           Ni1 tau(  58) = (  0.5000000  0.5000000  0.5000000  )
        59           Ni1 tau(  59) = (  0.7500000  0.5000000  0.2500000  )
        60           Ni1 tau(  60) = (  0.2500000  0.7500000  0.5000000  )
        61           Ni1 tau(  61) = (  0.5000000  0.7500000  0.2500000  )
        62           Ni1 tau(  62) = (  0.7500000  0.7500000  0.0000000  )
        63           Ni1 tau(  63) = (  0.7500000  0.0000000  0.7500000  )
        64           Ni1 tau(  64) = (  0.0000000  0.7500000  0.7500000  )

     number of k points=     1  Marzari-Vanderbilt smearing, width (Ry)=  0.0002
                       cart. coord. in units 2pi/alat
        k(    1) = (   0.0000000   0.0000000   0.0000000), wk =   1.0000000

                       cryst. coord.
        k(    1) = (   0.0000000   0.0000000   0.0000000), wk =   1.0000000

     Dense  grid:   367632 G-vectors     FFT dimensions: ( 120, 120, 120)

     Dynamical RAM for                 wfc:       9.82 MB

     Dynamical RAM for     wfc (w. buffer):      29.45 MB

     Dynamical RAM for             U proj.:       3.51 MB

     Dynamical RAM for  U proj. (w. buff.):      10.52 MB

     Dynamical RAM for           str. fact:       0.53 MB

     Dynamical RAM for           local pot:       0.00 MB

     Dynamical RAM for          nlocal pot:      21.74 MB

     Dynamical RAM for                qrad:       5.37 MB

     Dynamical RAM for          rho,v,vnew:       3.69 MB

     Dynamical RAM for               rhoin:       1.23 MB

     Dynamical RAM for            rho*nmix:       5.61 MB

     Dynamical RAM for           G-vectors:       0.75 MB

     Dynamical RAM for          h,s,v(r/c):      18.38 MB

     Dynamical RAM for          <psi|beta>:       3.39 MB

     Dynamical RAM for                 psi:      19.63 MB

     Dynamical RAM for                hpsi:      19.63 MB

     Dynamical RAM for      wfcinit/wfcrot:      24.23 MB

     Estimated static dynamical RAM per process >      76.60 MB

     Estimated max dynamical RAM per process >     143.25 MB

     Estimated total dynamical RAM >       4.48 GB
     Generating pointlists ...
     new r_m :   0.1031 (alat units)  1.6255 (a.u.) for type    1
     new r_m :   0.1031 (alat units)  1.6255 (a.u.) for type    2
     new r_m :   0.1031 (alat units)  1.6255 (a.u.) for type    3

     Initial potential from superposition of free atoms

     starting charge     767.9928, renormalised to     768.0000

     HUBBARD ENERGY =    9.1726  (Ry)
     Number of +U iterations with fixed ns =  0
     Starting occupations:

     Hubbard parameters (eV):
     U(  2) =  6.5000
     U(  3) =  6.5000

     ================= HUBBARD OCCUPATIONS ================
     --------------------- ATOM   33 ----------------------
     Tr[ns] (up, down, total) =   5.00000  3.00000  8.00000
     Atomic magnetic moment =   2.00000
     SPIN  1
     eigenvalues:
       1.000  1.000  1.000  1.000  1.000
     eigenvectors (columns):
       1.000  0.000  0.000  0.000  0.000
       0.000  1.000  0.000  0.000  0.000
       0.000  0.000  1.000  0.000  0.000
       0.000  0.000  0.000  1.000  0.000
       0.000  0.000  0.000  0.000  1.000
     occupation matrix ns (before diag.):
       1.000  0.000  0.000  0.000  0.000
       0.000  1.000  0.000  0.000  0.000
       0.000  0.000  1.000  0.000  0.000
       0.000  0.000  0.000  1.000  0.000
       0.000  0.000  0.000  0.000  1.000
     SPIN  2
     eigenvalues:
       0.600  0.600  0.600  0.600  0.600
     eigenvectors (columns):
       1.000  0.000  0.000  0.000  0.000
       0.000  1.000  0.000  0.000  0.000
       0.000  0.000  1.000  0.000  0.000
       0.000  0.000  0.000  1.000  0.000
       0.000  0.000  0.000  0.000  1.000
     occupation matrix ns (before diag.):
       0.600  0.000  0.000  0.000  0.000
       0.000  0.600  0.000  0.000  0.000
       0.000  0.000  0.600  0.000  0.000
       0.000  0.000  0.000  0.600  0.000
       0.000  0.000  0.000  0.000  0.600
     --------------------- ATOM   34 ----------------------
     Tr[ns] (up, down, total) =   5.00000  3.00000  8.00000
     Atomic magnetic moment =   2.00000
     SPIN  1
     eigenvalues:
       1.000  1.000  1.000  1.000  1.000
     eigenvectors (columns):
       1.000  0.000  0.000  0.000  0.000
       0.000  1.000  0.000  0.000  0.000
       0.000  0.000  1.000  0.000  0.000
       0.000  0.000  0.000  1.000  0.000
       0.000  0.000  0.000  0.000  1.000
     occupation matrix ns (before diag.):
       1.000  0.000  0.000  0.000  0.000
       0.000  1.000  0.000  0.000  0.000
       0.000  0.000  1.000  0.000  0.000
       0.000  0.000  0.000  1.000  0.000
       0.000  0.000  0.000  0.000  1.000
     SPIN  2
     eigenvalues:
       0.600  0.600  0.600  0.600  0.600
     eigenvectors (columns):
       1.000  0.000  0.000  0.000  0.000
       0.000  1.000  0.000  0.000  0.000
       0.000  0.000  1.000  0.000  0.000
       0.000  0.000  0.000  1.000  0.000
       0.000  0.000  0.000  0.000  1.000
     occupation matrix ns (before diag.):
       0.600  0.000  0.000  0.000  0.000
       0.000  0.600  0.000  0.000  0.000
       0.000  0.000  0.600  0.000  0.000
       0.000  0.000  0.000  0.600  0.000
       0.000  0.000  0.000  0.000  0.600
     --------------------- ATOM   35 ----------------------
     Tr[ns] (up, down, total) =   5.00000  3.00000  8.00000
     Atomic magnetic moment =   2.00000
     SPIN  1
     eigenvalues:
       1.000  1.000  1.000  1.000  1.000
     eigenvectors (columns):
       1.000  0.000  0.000  0.000  0.000
       0.000  1.000  0.000  0.000  0.000
       0.000  0.000  1.000  0.000  0.000
       0.000  0.000  0.000  1.000  0.000
       0.000  0.000  0.000  0.000  1.000
     occupation matrix ns (before diag.):
       1.000  0.000  0.000  0.000  0.000
       0.000  1.000  0.000  0.000  0.000
       0.000  0.000  1.000  0.000  0.000
       0.000  0.000  0.000  1.000  0.000
       0.000  0.000  0.000  0.000  1.000
     SPIN  2
     eigenvalues:
       0.600  0.600  0.600  0.600  0.600
     eigenvectors (columns):
       1.000  0.000  0.000  0.000  0.000
       0.000  1.000  0.000  0.000  0.000
       0.000  0.000  1.000  0.000  0.000
       0.000  0.000  0.000  1.000  0.000
       0.000  0.000  0.000  0.000  1.000
     occupation matrix ns (before diag.):
       0.600  0.000  0.000  0.000  0.000
       0.000  0.600  0.000  0.000  0.000
       0.000  0.000  0.600  0.000  0.000
       0.000  0.000  0.000  0.600  0.000
       0.000  0.000  0.000  0.000  0.600
     --------------------- ATOM   36 ----------------------
     Tr[ns] (up, down, total) =   5.00000  3.00000  8.00000
     Atomic magnetic moment =   2.00000
     SPIN  1
     eigenvalues:
       1.000  1.000  1.000  1.000  1.000
     eigenvectors (columns):
       1.000  0.000  0.000  0.000  0.000
       0.000  1.000  0.000  0.000  0.000
       0.000  0.000  1.000  0.000  0.000
       0.000  0.000  0.000  1.000  0.000
       0.000  0.000  0.000  0.000  1.000
     occupation matrix ns (before diag.):
       1.000  0.000  0.000  0.000  0.000
       0.000  1.000  0.000  0.000  0.000
       0.000  0.000  1.000  0.000  0.000
       0.000  0.000  0.000  1.000  0.000
       0.000  0.000  0.000  0.000  1.000
     SPIN  2
     eigenvalues:
       0.600  0.600  0.600  0.600  0.600
     eigenvectors (columns):
       1.000  0.000  0.000  0.000  0.000
       0.000  1.000  0.000  0.000  0.000
       0.000  0.000  1.000  0.000  0.000
       0.000  0.000  0.000  1.000  0.000
       0.000  0.000  0.000  0.000  1.000
     occupation matrix ns (before diag.):
       0.600  0.000  0.000  0.000  0.000
       0.000  0.600  0.000  0.000  0.000
       0.000  0.000  0.600  0.000  0.000
       0.000  0.000  0.000  0.600  0.000
       0.000  0.000  0.000  0.000  0.600
     --------------------- ATOM   37 ----------------------
     Tr[ns] (up, down, total) =   5.00000  3.00000  8.00000
     Atomic magnetic moment =   2.00000
     SPIN  1
     eigenvalues:
       1.000  1.000  1.000  1.000  1.000
     eigenvectors (columns):
       1.000  0.000  0.000  0.000  0.000
       0.000  1.000  0.000  0.000  0.000
       0.000  0.000  1.000  0.000  0.000
       0.000  0.000  0.000  1.000  0.000
       0.000  0.000  0.000  0.000  1.000
     occupation matrix ns (before diag.):
       1.000  0.000  0.000  0.000  0.000
       0.000  1.000  0.000  0.000  0.000
       0.000  0.000  1.000  0.000  0.000
       0.000  0.000  0.000  1.000  0.000
       0.000  0.000  0.000  0.000  1.000
     SPIN  2
     eigenvalues:
       0.600  0.600  0.600  0.600  0.600
     eigenvectors (columns):
       1.000  0.000  0.000  0.000  0.000
       0.000  1.000  0.000  0.000  0.000
       0.000  0.000  1.000  0.000  0.000
       0.000  0.000  0.000  1.000  0.000
       0.000  0.000  0.000  0.000  1.000
     occupation matrix ns (before diag.):
       0.600  0.000  0.000  0.000  0.000
       0.000  0.600  0.000  0.000  0.000
       0.000  0.000  0.600  0.000  0.000
       0.000  0.000  0.000  0.600  0.000
       0.000  0.000  0.000  0.000  0.600
     --------------------- ATOM   38 ----------------------
     Tr[ns] (up, down, total) =   5.00000  3.00000  8.00000
     Atomic magnetic moment =   2.00000
     SPIN  1
     eigenvalues:
       1.000  1.000  1.000  1.000  1.000
     eigenvectors (columns):
       1.000  0.000  0.000  0.000  0.000
       0.000  1.000  0.000  0.000  0.000
       0.000  0.000  1.000  0.000  0.000
       0.000  0.000  0.000  1.000  0.000
       0.000  0.000  0.000  0.000  1.000
     occupation matrix ns (before diag.):
       1.000  0.000  0.000  0.000  0.000
       0.000  1.000  0.000  0.000  0.000
       0.000  0.000  1.000  0.000  0.000
       0.000  0.000  0.000  1.000  0.000
       0.000  0.000  0.000  0.000  1.000
     SPIN  2
     eigenvalues:
       0.600  0.600  0.600  0.600  0.600
     eigenvectors (columns):
       1.000  0.000  0.000  0.000  0.000
       0.000  1.000  0.000  0.000  0.000
       0.000  0.000  1.000  0.000  0.000
       0.000  0.000  0.000  1.000  0.000
       0.000  0.000  0.000  0.000  1.000
     occupation matrix ns (before diag.):
       0.600  0.000  0.000  0.000  0.000
       0.000  0.600  0.000  0.000  0.000
       0.000  0.000  0.600  0.000  0.000
       0.000  0.000  0.000  0.600  0.000
       0.000  0.000  0.000  0.000  0.600
     --------------------- ATOM   39 ----------------------
     Tr[ns] (up, down, total) =   5.00000  3.00000  8.00000
     Atomic magnetic moment =   2.00000
     SPIN  1
     eigenvalues:
       1.000  1.000  1.000  1.000  1.000
     eigenvectors (columns):
       1.000  0.000  0.000  0.000  0.000
       0.000  1.000  0.000  0.000  0.000
       0.000  0.000  1.000  0.000  0.000
       0.000  0.000  0.000  1.000  0.000
       0.000  0.000  0.000  0.000  1.000
     occupation matrix ns (before diag.):
       1.000  0.000  0.000  0.000  0.000
       0.000  1.000  0.000  0.000  0.000
       0.000  0.000  1.000  0.000  0.000
       0.000  0.000  0.000  1.000  0.000
       0.000  0.000  0.000  0.000  1.000
     SPIN  2
     eigenvalues:
       0.600  0.600  0.600  0.600  0.600
     eigenvectors (columns):
       1.000  0.000  0.000  0.000  0.000
       0.000  1.000  0.000  0.000  0.000
       0.000  0.000  1.000  0.000  0.000
       0.000  0.000  0.000  1.000  0.000
       0.000  0.000  0.000  0.000  1.000
     occupation matrix ns (before diag.):
       0.600  0.000  0.000  0.000  0.000
       0.000  0.600  0.000  0.000  0.000
       0.000  0.000  0.600  0.000  0.000
       0.000  0.000  0.000  0.600  0.000
       0.000  0.000  0.000  0.000  0.600
     --------------------- ATOM   40 ----------------------
     Tr[ns] (up, down, total) =   5.00000  3.00000  8.00000
     Atomic magnetic moment =   2.00000
     SPIN  1
     eigenvalues:
       1.000  1.000  1.000  1.000  1.000
     eigenvectors (columns):
       1.000  0.000  0.000  0.000  0.000
       0.000  1.000  0.000  0.000  0.000
       0.000  0.000  1.000  0.000  0.000
       0.000  0.000  0.000  1.000  0.000
       0.000  0.000  0.000  0.000  1.000
     occupation matrix ns (before diag.):
       1.000  0.000  0.000  0.000  0.000
       0.000  1.000  0.000  0.000  0.000
       0.000  0.000  1.000  0.000  0.000
       0.000  0.000  0.000  1.000  0.000
       0.000  0.000  0.000  0.000  1.000
     SPIN  2
     eigenvalues:
       0.600  0.600  0.600  0.600  0.600
     eigenvectors (columns):
       1.000  0.000  0.000  0.000  0.000
       0.000  1.000  0.000  0.000  0.000
       0.000  0.000  1.000  0.000  0.000
       0.000  0.000  0.000  1.000  0.000
       0.000  0.000  0.000  0.000  1.000
     occupation matrix ns (before diag.):
       0.600  0.000  0.000  0.000  0.000
       0.000  0.600  0.000  0.000  0.000
       0.000  0.000  0.600  0.000  0.000
       0.000  0.000  0.000  0.600  0.000
       0.000  0.000  0.000  0.000  0.600
     --------------------- ATOM   41 ----------------------
     Tr[ns] (up, down, total) =   5.00000  3.00000  8.00000
     Atomic magnetic moment =   2.00000
     SPIN  1
     eigenvalues:
       1.000  1.000  1.000  1.000  1.000
     eigenvectors (columns):
       1.000  0.000  0.000  0.000  0.000
       0.000  1.000  0.000  0.000  0.000
       0.000  0.000  1.000  0.000  0.000
       0.000  0.000  0.000  1.000  0.000
       0.000  0.000  0.000  0.000  1.000
     occupation matrix ns (before diag.):
       1.000  0.000  0.000  0.000  0.000
       0.000  1.000  0.000  0.000  0.000
       0.000  0.000  1.000  0.000  0.000
       0.000  0.000  0.000  1.000  0.000
       0.000  0.000  0.000  0.000  1.000
     SPIN  2
     eigenvalues:
       0.600  0.600  0.600  0.600  0.600
     eigenvectors (columns):
       1.000  0.000  0.000  0.000  0.000
       0.000  1.000  0.000  0.000  0.000
       0.000  0.000  1.000  0.000  0.000
       0.000  0.000  0.000  1.000  0.000
       0.000  0.000  0.000  0.000  1.000
     occupation matrix ns (before diag.):
       0.600  0.000  0.000  0.000  0.000
       0.000  0.600  0.000  0.000  0.000
       0.000  0.000  0.600  0.000  0.000
       0.000  0.000  0.000  0.600  0.000
       0.000  0.000  0.000  0.000  0.600
     --------------------- ATOM   42 ----------------------
     Tr[ns] (up, down, total) =   5.00000  3.00000  8.00000
     Atomic magnetic moment =   2.00000
     SPIN  1
     eigenvalues:
       1.000  1.000  1.000  1.000  1.000
     eigenvectors (columns):
       1.000  0.000  0.000  0.000  0.000
       0.000  1.000  0.000  0.000  0.000
       0.000  0.000  1.000  0.000  0.000
       0.000  0.000  0.000  1.000  0.000
       0.000  0.000  0.000  0.000  1.000
     occupation matrix ns (before diag.):
       1.000  0.000  0.000  0.000  0.000
       0.000  1.000  0.000  0.000  0.000
       0.000  0.000  1.000  0.000  0.000
       0.000  0.000  0.000  1.000  0.000
       0.000  0.000  0.000  0.000  1.000
     SPIN  2
     eigenvalues:
       0.600  0.600  0.600  0.600  0.600
     eigenvectors (columns):
       1.000  0.000  0.000  0.000  0.000
       0.000  1.000  0.000  0.000  0.000
       0.000  0.000  1.000  0.000  0.000
       0.000  0.000  0.000  1.000  0.000
       0.000  0.000  0.000  0.000  1.000
     occupation matrix ns (before diag.):
       0.600  0.000  0.000  0.000  0.000
       0.000  0.600  0.000  0.000  0.000
       0.000  0.000  0.600  0.000  0.000
       0.000  0.000  0.000  0.600  0.000
       0.000  0.000  0.000  0.000  0.600
     --------------------- ATOM   43 ----------------------
     Tr[ns] (up, down, total) =   5.00000  3.00000  8.00000
     Atomic magnetic moment =   2.00000
     SPIN  1
     eigenvalues:
       1.000  1.000  1.000  1.000  1.000
     eigenvectors (columns):
       1.000  0.000  0.000  0.000  0.000
       0.000  1.000  0.000  0.000  0.000
       0.000  0.000  1.000  0.000  0.000
       0.000  0.000  0.000  1.000  0.000
       0.000  0.000  0.000  0.000  1.000
     occupation matrix ns (before diag.):
       1.000  0.000  0.000  0.000  0.000
       0.000  1.000  0.000  0.000  0.000
       0.000  0.000  1.000  0.000  0.000
       0.000  0.000  0.000  1.000  0.000
       0.000  0.000  0.000  0.000  1.000
     SPIN  2
     eigenvalues:
       0.600  0.600  0.600  0.600  0.600
     eigenvectors (columns):
       1.000  0.000  0.000  0.000  0.000
       0.000  1.000  0.000  0.000  0.000
       0.000  0.000  1.000  0.000  0.000
       0.000  0.000  0.000  1.000  0.000
       0.000  0.000  0.000  0.000  1.000
     occupation matrix ns (before diag.):
       0.600  0.000  0.000  0.000  0.000
       0.000  0.600  0.000  0.000  0.000
       0.000  0.000  0.600  0.000  0.000
       0.000  0.000  0.000  0.600  0.000
       0.000  0.000  0.000  0.000  0.600
     --------------------- ATOM   44 ----------------------
     Tr[ns] (up, down, total) =   5.00000  3.00000  8.00000
     Atomic magnetic moment =   2.00000
     SPIN  1
     eigenvalues:
       1.000  1.000  1.000  1.000  1.000
     eigenvectors (columns):
       1.000  0.000  0.000  0.000  0.000
       0.000  1.000  0.000  0.000  0.000
       0.000  0.000  1.000  0.000  0.000
       0.000  0.000  0.000  1.000  0.000
       0.000  0.000  0.000  0.000  1.000
     occupation matrix ns (before diag.):
       1.000  0.000  0.000  0.000  0.000
       0.000  1.000  0.000  0.000  0.000
       0.000  0.000  1.000  0.000  0.000
       0.000  0.000  0.000  1.000  0.000
       0.000  0.000  0.000  0.000  1.000
     SPIN  2
     eigenvalues:
       0.600  0.600  0.600  0.600  0.600
     eigenvectors (columns):
       1.000  0.000  0.000  0.000  0.000
       0.000  1.000  0.000  0.000  0.000
       0.000  0.000  1.000  0.000  0.000
       0.000  0.000  0.000  1.000  0.000
       0.000  0.000  0.000  0.000  1.000
     occupation matrix ns (before diag.):
       0.600  0.000  0.000  0.000  0.000
       0.000  0.600  0.000  0.000  0.000
       0.000  0.000  0.600  0.000  0.000
       0.000  0.000  0.000  0.600  0.000
       0.000  0.000  0.000  0.000  0.600
     --------------------- ATOM   45 ----------------------
     Tr[ns] (up, down, total) =   5.00000  3.00000  8.00000
     Atomic magnetic moment =   2.00000
     SPIN  1
     eigenvalues:
       1.000  1.000  1.000  1.000  1.000
     eigenvectors (columns):
       1.000  0.000  0.000  0.000  0.000
       0.000  1.000  0.000  0.000  0.000
       0.000  0.000  1.000  0.000  0.000
       0.000  0.000  0.000  1.000  0.000
       0.000  0.000  0.000  0.000  1.000
     occupation matrix ns (before diag.):
       1.000  0.000  0.000  0.000  0.000
       0.000  1.000  0.000  0.000  0.000
       0.000  0.000  1.000  0.000  0.000
       0.000  0.000  0.000  1.000  0.000
       0.000  0.000  0.000  0.000  1.000
     SPIN  2
     eigenvalues:
       0.600  0.600  0.600  0.600  0.600
     eigenvectors (columns):
       1.000  0.000  0.000  0.000  0.000
       0.000  1.000  0.000  0.000  0.000
       0.000  0.000  1.000  0.000  0.000
       0.000  0.000  0.000  1.000  0.000
       0.000  0.000  0.000  0.000  1.000
     occupation matrix ns (before diag.):
       0.600  0.000  0.000  0.000  0.000
       0.000  0.600  0.000  0.000  0.000
       0.000  0.000  0.600  0.000  0.000
       0.000  0.000  0.000  0.600  0.000
       0.000  0.000  0.000  0.000  0.600
     --------------------- ATOM   46 ----------------------
     Tr[ns] (up, down, total) =   5.00000  3.00000  8.00000
     Atomic magnetic moment =   2.00000
     SPIN  1
     eigenvalues:
       1.000  1.000  1.000  1.000  1.000
     eigenvectors (columns):
       1.000  0.000  0.000  0.000  0.000
       0.000  1.000  0.000  0.000  0.000
       0.000  0.000  1.000  0.000  0.000
       0.000  0.000  0.000  1.000  0.000
       0.000  0.000  0.000  0.000  1.000
     occupation matrix ns (before diag.):
       1.000  0.000  0.000  0.000  0.000
       0.000  1.000  0.000  0.000  0.000
       0.000  0.000  1.000  0.000  0.000
       0.000  0.000  0.000  1.000  0.000
       0.000  0.000  0.000  0.000  1.000
     SPIN  2
     eigenvalues:
       0.600  0.600  0.600  0.600  0.600
     eigenvectors (columns):
       1.000  0.000  0.000  0.000  0.000
       0.000  1.000  0.000  0.000  0.000
       0.000  0.000  1.000  0.000  0.000
       0.000  0.000  0.000  1.000  0.000
       0.000  0.000  0.000  0.000  1.000
     occupation matrix ns (before diag.):
       0.600  0.000  0.000  0.000  0.000
       0.000  0.600  0.000  0.000  0.000
       0.000  0.000  0.600  0.000  0.000
       0.000  0.000  0.000  0.600  0.000
       0.000  0.000  0.000  0.000  0.600
     --------------------- ATOM   47 ----------------------
     Tr[ns] (up, down, total) =   5.00000  3.00000  8.00000
     Atomic magnetic moment =   2.00000
     SPIN  1
     eigenvalues:
       1.000  1.000  1.000  1.000  1.000
     eigenvectors (columns):
       1.000  0.000  0.000  0.000  0.000
       0.000  1.000  0.000  0.000  0.000
       0.000  0.000  1.000  0.000  0.000
       0.000  0.000  0.000  1.000  0.000
       0.000  0.000  0.000  0.000  1.000
     occupation matrix ns (before diag.):
       1.000  0.000  0.000  0.000  0.000
       0.000  1.000  0.000  0.000  0.000
       0.000  0.000  1.000  0.000  0.000
       0.000  0.000  0.000  1.000  0.000
       0.000  0.000  0.000  0.000  1.000
     SPIN  2
     eigenvalues:
       0.600  0.600  0.600  0.600  0.600
     eigenvectors (columns):
       1.000  0.000  0.000  0.000  0.000
       0.000  1.000  0.000  0.000  0.000
       0.000  0.000  1.000  0.000  0.000
       0.000  0.000  0.000  1.000  0.000
       0.000  0.000  0.000  0.000  1.000
     occupation matrix ns (before diag.):
       0.600  0.000  0.000  0.000  0.000
       0.000  0.600  0.000  0.000  0.000
       0.000  0.000  0.600  0.000  0.000
       0.000  0.000  0.000  0.600  0.000
       0.000  0.000  0.000  0.000  0.600
     --------------------- ATOM   48 ----------------------
     Tr[ns] (up, down, total) =   5.00000  3.00000  8.00000
     Atomic magnetic moment =   2.00000
     SPIN  1
     eigenvalues:
       1.000  1.000  1.000  1.000  1.000
     eigenvectors (columns):
       1.000  0.000  0.000  0.000  0.000
       0.000  1.000  0.000  0.000  0.000
       0.000  0.000  1.000  0.000  0.000
       0.000  0.000  0.000  1.000  0.000
       0.000  0.000  0.000  0.000  1.000
     occupation matrix ns (before diag.):
       1.000  0.000  0.000  0.000  0.000
       0.000  1.000  0.000  0.000  0.000
       0.000  0.000  1.000  0.000  0.000
       0.000  0.000  0.000  1.000  0.000
       0.000  0.000  0.000  0.000  1.000
     SPIN  2
     eigenvalues:
       0.600  0.600  0.600  0.600  0.600
     eigenvectors (columns):
       1.000  0.000  0.000  0.000  0.000
       0.000  1.000  0.000  0.000  0.000
       0.000  0.000  1.000  0.000  0.000
       0.000  0.000  0.000  1.000  0.000
       0.000  0.000  0.000  0.000  1.000
     occupation matrix ns (before diag.):
       0.600  0.000  0.000  0.000  0.000
       0.000  0.600  0.000  0.000  0.000
       0.000  0.000  0.600  0.000  0.000
       0.000  0.000  0.000  0.600  0.000
       0.000  0.000  0.000  0.000  0.600
     --------------------- ATOM   49 ----------------------
     Tr[ns] (up, down, total) =   3.00000  5.00000  8.00000
     Atomic magnetic moment =  -2.00000
     SPIN  1
     eigenvalues:
       0.600  0.600  0.600  0.600  0.600
     eigenvectors (columns):
       1.000  0.000  0.000  0.000  0.000
       0.000  1.000  0.000  0.000  0.000
       0.000  0.000  1.000  0.000  0.000
       0.000  0.000  0.000  1.000  0.000
       0.000  0.000  0.000  0.000  1.000
     occupation matrix ns (before diag.):
       0.600  0.000  0.000  0.000  0.000
       0.000  0.600  0.000  0.000  0.000
       0.000  0.000  0.600  0.000  0.000
       0.000  0.000  0.000  0.600  0.000
       0.000  0.000  0.000  0.000  0.600
     SPIN  2
     eigenvalues:
       1.000  1.000  1.000  1.000  1.000
     eigenvectors (columns):
       1.000  0.000  0.000  0.000  0.000
       0.000  1.000  0.000  0.000  0.000
       0.000  0.000  1.000  0.000  0.000
       0.000  0.000  0.000  1.000  0.000
       0.000  0.000  0.000  0.000  1.000
     occupation matrix ns (before diag.):
       1.000  0.000  0.000  0.000  0.000
       0.000  1.000  0.000  0.000  0.000
       0.000  0.000  1.000  0.000  0.000
       0.000  0.000  0.000  1.000  0.000
       0.000  0.000  0.000  0.000  1.000
     --------------------- ATOM   50 ----------------------
     Tr[ns] (up, down, total) =   3.00000  5.00000  8.00000
     Atomic magnetic moment =  -2.00000
     SPIN  1
     eigenvalues:
       0.600  0.600  0.600  0.600  0.600
     eigenvectors (columns):
       1.000  0.000  0.000  0.000  0.000
       0.000  1.000  0.000  0.000  0.000
       0.000  0.000  1.000  0.000  0.000
       0.000  0.000  0.000  1.000  0.000
       0.000  0.000  0.000  0.000  1.000
     occupation matrix ns (before diag.):
       0.600  0.000  0.000  0.000  0.000
       0.000  0.600  0.000  0.000  0.000
       0.000  0.000  0.600  0.000  0.000
       0.000  0.000  0.000  0.600  0.000
       0.000  0.000  0.000  0.000  0.600
     SPIN  2
     eigenvalues:
       1.000  1.000  1.000  1.000  1.000
     eigenvectors (columns):
       1.000  0.000  0.000  0.000  0.000
       0.000  1.000  0.000  0.000  0.000
       0.000  0.000  1.000  0.000  0.000
       0.000  0.000  0.000  1.000  0.000
       0.000  0.000  0.000  0.000  1.000
     occupation matrix ns (before diag.):
       1.000  0.000  0.000  0.000  0.000
       0.000  1.000  0.000  0.000  0.000
       0.000  0.000  1.000  0.000  0.000
       0.000  0.000  0.000  1.000  0.000
       0.000  0.000  0.000  0.000  1.000
     --------------------- ATOM   51 ----------------------
     Tr[ns] (up, down, total) =   3.00000  5.00000  8.00000
     Atomic magnetic moment =  -2.00000
     SPIN  1
     eigenvalues:
       0.600  0.600  0.600  0.600  0.600
     eigenvectors (columns):
       1.000  0.000  0.000  0.000  0.000
       0.000  1.000  0.000  0.000  0.000
       0.000  0.000  1.000  0.000  0.000
       0.000  0.000  0.000  1.000  0.000
       0.000  0.000  0.000  0.000  1.000
     occupation matrix ns (before diag.):
       0.600  0.000  0.000  0.000  0.000
       0.000  0.600  0.000  0.000  0.000
       0.000  0.000  0.600  0.000  0.000
       0.000  0.000  0.000  0.600  0.000
       0.000  0.000  0.000  0.000  0.600
     SPIN  2
     eigenvalues:
       1.000  1.000  1.000  1.000  1.000
     eigenvectors (columns):
       1.000  0.000  0.000  0.000  0.000
       0.000  1.000  0.000  0.000  0.000
       0.000  0.000  1.000  0.000  0.000
       0.000  0.000  0.000  1.000  0.000
       0.000  0.000  0.000  0.000  1.000
     occupation matrix ns (before diag.):
       1.000  0.000  0.000  0.000  0.000
       0.000  1.000  0.000  0.000  0.000
       0.000  0.000  1.000  0.000  0.000
       0.000  0.000  0.000  1.000  0.000
       0.000  0.000  0.000  0.000  1.000
     --------------------- ATOM   52 ----------------------
     Tr[ns] (up, down, total) =   3.00000  5.00000  8.00000
     Atomic magnetic moment =  -2.00000
     SPIN  1
     eigenvalues:
       0.600  0.600  0.600  0.600  0.600
     eigenvectors (columns):
       1.000  0.000  0.000  0.000  0.000
       0.000  1.000  0.000  0.000  0.000
       0.000  0.000  1.000  0.000  0.000
       0.000  0.000  0.000  1.000  0.000
       0.000  0.000  0.000  0.000  1.000
     occupation matrix ns (before diag.):
       0.600  0.000  0.000  0.000  0.000
       0.000  0.600  0.000  0.000  0.000
       0.000  0.000  0.600  0.000  0.000
       0.000  0.000  0.000  0.600  0.000
       0.000  0.000  0.000  0.000  0.600
     SPIN  2
     eigenvalues:
       1.000  1.000  1.000  1.000  1.000
     eigenvectors (columns):
       1.000  0.000  0.000  0.000  0.000
       0.000  1.000  0.000  0.000  0.000
       0.000  0.000  1.000  0.000  0.000
       0.000  0.000  0.000  1.000  0.000
       0.000  0.000  0.000  0.000  1.000
     occupation matrix ns (before diag.):
       1.000  0.000  0.000  0.000  0.000
       0.000  1.000  0.000  0.000  0.000
       0.000  0.000  1.000  0.000  0.000
       0.000  0.000  0.000  1.000  0.000
       0.000  0.000  0.000  0.000  1.000
     --------------------- ATOM   53 ----------------------
     Tr[ns] (up, down, total) =   3.00000  5.00000  8.00000
     Atomic magnetic moment =  -2.00000
     SPIN  1
     eigenvalues:
       0.600  0.600  0.600  0.600  0.600
     eigenvectors (columns):
       1.000  0.000  0.000  0.000  0.000
       0.000  1.000  0.000  0.000  0.000
       0.000  0.000  1.000  0.000  0.000
       0.000  0.000  0.000  1.000  0.000
       0.000  0.000  0.000  0.000  1.000
     occupation matrix ns (before diag.):
       0.600  0.000  0.000  0.000  0.000
       0.000  0.600  0.000  0.000  0.000
       0.000  0.000  0.600  0.000  0.000
       0.000  0.000  0.000  0.600  0.000
       0.000  0.000  0.000  0.000  0.600
     SPIN  2
     eigenvalues:
       1.000  1.000  1.000  1.000  1.000
     eigenvectors (columns):
       1.000  0.000  0.000  0.000  0.000
       0.000  1.000  0.000  0.000  0.000
       0.000  0.000  1.000  0.000  0.000
       0.000  0.000  0.000  1.000  0.000
       0.000  0.000  0.000  0.000  1.000
     occupation matrix ns (before diag.):
       1.000  0.000  0.000  0.000  0.000
       0.000  1.000  0.000  0.000  0.000
       0.000  0.000  1.000  0.000  0.000
       0.000  0.000  0.000  1.000  0.000
       0.000  0.000  0.000  0.000  1.000
     --------------------- ATOM   54 ----------------------
     Tr[ns] (up, down, total) =   3.00000  5.00000  8.00000
     Atomic magnetic moment =  -2.00000
     SPIN  1
     eigenvalues:
       0.600  0.600  0.600  0.600  0.600
     eigenvectors (columns):
       1.000  0.000  0.000  0.000  0.000
       0.000  1.000  0.000  0.000  0.000
       0.000  0.000  1.000  0.000  0.000
       0.000  0.000  0.000  1.000  0.000
       0.000  0.000  0.000  0.000  1.000
     occupation matrix ns (before diag.):
       0.600  0.000  0.000  0.000  0.000
       0.000  0.600  0.000  0.000  0.000
       0.000  0.000  0.600  0.000  0.000
       0.000  0.000  0.000  0.600  0.000
       0.000  0.000  0.000  0.000  0.600
     SPIN  2
     eigenvalues:
       1.000  1.000  1.000  1.000  1.000
     eigenvectors (columns):
       1.000  0.000  0.000  0.000  0.000
       0.000  1.000  0.000  0.000  0.000
       0.000  0.000  1.000  0.000  0.000
       0.000  0.000  0.000  1.000  0.000
       0.000  0.000  0.000  0.000  1.000
     occupation matrix ns (before diag.):
       1.000  0.000  0.000  0.000  0.000
       0.000  1.000  0.000  0.000  0.000
       0.000  0.000  1.000  0.000  0.000
       0.000  0.000  0.000  1.000  0.000
       0.000  0.000  0.000  0.000  1.000
     --------------------- ATOM   55 ----------------------
     Tr[ns] (up, down, total) =   3.00000  5.00000  8.00000
     Atomic magnetic moment =  -2.00000
     SPIN  1
     eigenvalues:
       0.600  0.600  0.600  0.600  0.600
     eigenvectors (columns):
       1.000  0.000  0.000  0.000  0.000
       0.000  1.000  0.000  0.000  0.000
       0.000  0.000  1.000  0.000  0.000
       0.000  0.000  0.000  1.000  0.000
       0.000  0.000  0.000  0.000  1.000
     occupation matrix ns (before diag.):
       0.600  0.000  0.000  0.000  0.000
       0.000  0.600  0.000  0.000  0.000
       0.000  0.000  0.600  0.000  0.000
       0.000  0.000  0.000  0.600  0.000
       0.000  0.000  0.000  0.000  0.600
     SPIN  2
     eigenvalues:
       1.000  1.000  1.000  1.000  1.000
     eigenvectors (columns):
       1.000  0.000  0.000  0.000  0.000
       0.000  1.000  0.000  0.000  0.000
       0.000  0.000  1.000  0.000  0.000
       0.000  0.000  0.000  1.000  0.000
       0.000  0.000  0.000  0.000  1.000
     occupation matrix ns (before diag.):
       1.000  0.000  0.000  0.000  0.000
       0.000  1.000  0.000  0.000  0.000
       0.000  0.000  1.000  0.000  0.000
       0.000  0.000  0.000  1.000  0.000
       0.000  0.000  0.000  0.000  1.000
     --------------------- ATOM   56 ----------------------
     Tr[ns] (up, down, total) =   3.00000  5.00000  8.00000
     Atomic magnetic moment =  -2.00000
     SPIN  1
     eigenvalues:
       0.600  0.600  0.600  0.600  0.600
     eigenvectors (columns):
       1.000  0.000  0.000  0.000  0.000
       0.000  1.000  0.000  0.000  0.000
       0.000  0.000  1.000  0.000  0.000
       0.000  0.000  0.000  1.000  0.000
       0.000  0.000  0.000  0.000  1.000
     occupation matrix ns (before diag.):
       0.600  0.000  0.000  0.000  0.000
       0.000  0.600  0.000  0.000  0.000
       0.000  0.000  0.600  0.000  0.000
       0.000  0.000  0.000  0.600  0.000
       0.000  0.000  0.000  0.000  0.600
     SPIN  2
     eigenvalues:
       1.000  1.000  1.000  1.000  1.000
     eigenvectors (columns):
       1.000  0.000  0.000  0.000  0.000
       0.000  1.000  0.000  0.000  0.000
       0.000  0.000  1.000  0.000  0.000
       0.000  0.000  0.000  1.000  0.000
       0.000  0.000  0.000  0.000  1.000
     occupation matrix ns (before diag.):
       1.000  0.000  0.000  0.000  0.000
       0.000  1.000  0.000  0.000  0.000
       0.000  0.000  1.000  0.000  0.000
       0.000  0.000  0.000  1.000  0.000
       0.000  0.000  0.000  0.000  1.000
     --------------------- ATOM   57 ----------------------
     Tr[ns] (up, down, total) =   3.00000  5.00000  8.00000
     Atomic magnetic moment =  -2.00000
     SPIN  1
     eigenvalues:
       0.600  0.600  0.600  0.600  0.600
     eigenvectors (columns):
       1.000  0.000  0.000  0.000  0.000
       0.000  1.000  0.000  0.000  0.000
       0.000  0.000  1.000  0.000  0.000
       0.000  0.000  0.000  1.000  0.000
       0.000  0.000  0.000  0.000  1.000
     occupation matrix ns (before diag.):
       0.600  0.000  0.000  0.000  0.000
       0.000  0.600  0.000  0.000  0.000
       0.000  0.000  0.600  0.000  0.000
       0.000  0.000  0.000  0.600  0.000
       0.000  0.000  0.000  0.000  0.600
     SPIN  2
     eigenvalues:
       1.000  1.000  1.000  1.000  1.000
     eigenvectors (columns):
       1.000  0.000  0.000  0.000  0.000
       0.000  1.000  0.000  0.000  0.000
       0.000  0.000  1.000  0.000  0.000
       0.000  0.000  0.000  1.000  0.000
       0.000  0.000  0.000  0.000  1.000
     occupation matrix ns (before diag.):
       1.000  0.000  0.000  0.000  0.000
       0.000  1.000  0.000  0.000  0.000
       0.000  0.000  1.000  0.000  0.000
       0.000  0.000  0.000  1.000  0.000
       0.000  0.000  0.000  0.000  1.000
     --------------------- ATOM   58 ----------------------
     Tr[ns] (up, down, total) =   3.00000  5.00000  8.00000
     Atomic magnetic moment =  -2.00000
     SPIN  1
     eigenvalues:
       0.600  0.600  0.600  0.600  0.600
     eigenvectors (columns):
       1.000  0.000  0.000  0.000  0.000
       0.000  1.000  0.000  0.000  0.000
       0.000  0.000  1.000  0.000  0.000
       0.000  0.000  0.000  1.000  0.000
       0.000  0.000  0.000  0.000  1.000
     occupation matrix ns (before diag.):
       0.600  0.000  0.000  0.000  0.000
       0.000  0.600  0.000  0.000  0.000
       0.000  0.000  0.600  0.000  0.000
       0.000  0.000  0.000  0.600  0.000
       0.000  0.000  0.000  0.000  0.600
     SPIN  2
     eigenvalues:
       1.000  1.000  1.000  1.000  1.000
     eigenvectors (columns):
       1.000  0.000  0.000  0.000  0.000
       0.000  1.000  0.000  0.000  0.000
       0.000  0.000  1.000  0.000  0.000
       0.000  0.000  0.000  1.000  0.000
       0.000  0.000  0.000  0.000  1.000
     occupation matrix ns (before diag.):
       1.000  0.000  0.000  0.000  0.000
       0.000  1.000  0.000  0.000  0.000
       0.000  0.000  1.000  0.000  0.000
       0.000  0.000  0.000  1.000  0.000
       0.000  0.000  0.000  0.000  1.000
     --------------------- ATOM   59 ----------------------
     Tr[ns] (up, down, total) =   3.00000  5.00000  8.00000
     Atomic magnetic moment =  -2.00000
     SPIN  1
     eigenvalues:
       0.600  0.600  0.600  0.600  0.600
     eigenvectors (columns):
       1.000  0.000  0.000  0.000  0.000
       0.000  1.000  0.000  0.000  0.000
       0.000  0.000  1.000  0.000  0.000
       0.000  0.000  0.000  1.000  0.000
       0.000  0.000  0.000  0.000  1.000
     occupation matrix ns (before diag.):
       0.600  0.000  0.000  0.000  0.000
       0.000  0.600  0.000  0.000  0.000
       0.000  0.000  0.600  0.000  0.000
       0.000  0.000  0.000  0.600  0.000
       0.000  0.000  0.000  0.000  0.600
     SPIN  2
     eigenvalues:
       1.000  1.000  1.000  1.000  1.000
     eigenvectors (columns):
       1.000  0.000  0.000  0.000  0.000
       0.000  1.000  0.000  0.000  0.000
       0.000  0.000  1.000  0.000  0.000
       0.000  0.000  0.000  1.000  0.000
       0.000  0.000  0.000  0.000  1.000
     occupation matrix ns (before diag.):
       1.000  0.000  0.000  0.000  0.000
       0.000  1.000  0.000  0.000  0.000
       0.000  0.000  1.000  0.000  0.000
       0.000  0.000  0.000  1.000  0.000
       0.000  0.000  0.000  0.000  1.000
     --------------------- ATOM   60 ----------------------
     Tr[ns] (up, down, total) =   3.00000  5.00000  8.00000
     Atomic magnetic moment =  -2.00000
     SPIN  1
     eigenvalues:
       0.600  0.600  0.600  0.600  0.600
     eigenvectors (columns):
       1.000  0.000  0.000  0.000  0.000
       0.000  1.000  0.000  0.000  0.000
       0.000  0.000  1.000  0.000  0.000
       0.000  0.000  0.000  1.000  0.000
       0.000  0.000  0.000  0.000  1.000
     occupation matrix ns (before diag.):
       0.600  0.000  0.000  0.000  0.000
       0.000  0.600  0.000  0.000  0.000
       0.000  0.000  0.600  0.000  0.000
       0.000  0.000  0.000  0.600  0.000
       0.000  0.000  0.000  0.000  0.600
     SPIN  2
     eigenvalues:
       1.000  1.000  1.000  1.000  1.000
     eigenvectors (columns):
       1.000  0.000  0.000  0.000  0.000
       0.000  1.000  0.000  0.000  0.000
       0.000  0.000  1.000  0.000  0.000
       0.000  0.000  0.000  1.000  0.000
       0.000  0.000  0.000  0.000  1.000
     occupation matrix ns (before diag.):
       1.000  0.000  0.000  0.000  0.000
       0.000  1.000  0.000  0.000  0.000
       0.000  0.000  1.000  0.000  0.000
       0.000  0.000  0.000  1.000  0.000
       0.000  0.000  0.000  0.000  1.000
     --------------------- ATOM   61 ----------------------
     Tr[ns] (up, down, total) =   3.00000  5.00000  8.00000
     Atomic magnetic moment =  -2.00000
     SPIN  1
     eigenvalues:
       0.600  0.600  0.600  0.600  0.600
     eigenvectors (columns):
       1.000  0.000  0.000  0.000  0.000
       0.000  1.000  0.000  0.000  0.000
       0.000  0.000  1.000  0.000  0.000
       0.000  0.000  0.000  1.000  0.000
       0.000  0.000  0.000  0.000  1.000
     occupation matrix ns (before diag.):
       0.600  0.000  0.000  0.000  0.000
       0.000  0.600  0.000  0.000  0.000
       0.000  0.000  0.600  0.000  0.000
       0.000  0.000  0.000  0.600  0.000
       0.000  0.000  0.000  0.000  0.600
     SPIN  2
     eigenvalues:
       1.000  1.000  1.000  1.000  1.000
     eigenvectors (columns):
       1.000  0.000  0.000  0.000  0.000
       0.000  1.000  0.000  0.000  0.000
       0.000  0.000  1.000  0.000  0.000
       0.000  0.000  0.000  1.000  0.000
       0.000  0.000  0.000  0.000  1.000
     occupation matrix ns (before diag.):
       1.000  0.000  0.000  0.000  0.000
       0.000  1.000  0.000  0.000  0.000
       0.000  0.000  1.000  0.000  0.000
       0.000  0.000  0.000  1.000  0.000
       0.000  0.000  0.000  0.000  1.000
     --------------------- ATOM   62 ----------------------
     Tr[ns] (up, down, total) =   3.00000  5.00000  8.00000
     Atomic magnetic moment =  -2.00000
     SPIN  1
     eigenvalues:
       0.600  0.600  0.600  0.600  0.600
     eigenvectors (columns):
       1.000  0.000  0.000  0.000  0.000
       0.000  1.000  0.000  0.000  0.000
       0.000  0.000  1.000  0.000  0.000
       0.000  0.000  0.000  1.000  0.000
       0.000  0.000  0.000  0.000  1.000
     occupation matrix ns (before diag.):
       0.600  0.000  0.000  0.000  0.000
       0.000  0.600  0.000  0.000  0.000
       0.000  0.000  0.600  0.000  0.000
       0.000  0.000  0.000  0.600  0.000
       0.000  0.000  0.000  0.000  0.600
     SPIN  2
     eigenvalues:
       1.000  1.000  1.000  1.000  1.000
     eigenvectors (columns):
       1.000  0.000  0.000  0.000  0.000
       0.000  1.000  0.000  0.000  0.000
       0.000  0.000  1.000  0.000  0.000
       0.000  0.000  0.000  1.000  0.000
       0.000  0.000  0.000  0.000  1.000
     occupation matrix ns (before diag.):
       1.000  0.000  0.000  0.000  0.000
       0.000  1.000  0.000  0.000  0.000
       0.000  0.000  1.000  0.000  0.000
       0.000  0.000  0.000  1.000  0.000
       0.000  0.000  0.000  0.000  1.000
     --------------------- ATOM   63 ----------------------
     Tr[ns] (up, down, total) =   3.00000  5.00000  8.00000
     Atomic magnetic moment =  -2.00000
     SPIN  1
     eigenvalues:
       0.600  0.600  0.600  0.600  0.600
     eigenvectors (columns):
       1.000  0.000  0.000  0.000  0.000
       0.000  1.000  0.000  0.000  0.000
       0.000  0.000  1.000  0.000  0.000
       0.000  0.000  0.000  1.000  0.000
       0.000  0.000  0.000  0.000  1.000
     occupation matrix ns (before diag.):
       0.600  0.000  0.000  0.000  0.000
       0.000  0.600  0.000  0.000  0.000
       0.000  0.000  0.600  0.000  0.000
       0.000  0.000  0.000  0.600  0.000
       0.000  0.000  0.000  0.000  0.600
     SPIN  2
     eigenvalues:
       1.000  1.000  1.000  1.000  1.000
     eigenvectors (columns):
       1.000  0.000  0.000  0.000  0.000
       0.000  1.000  0.000  0.000  0.000
       0.000  0.000  1.000  0.000  0.000
       0.000  0.000  0.000  1.000  0.000
       0.000  0.000  0.000  0.000  1.000
     occupation matrix ns (before diag.):
       1.000  0.000  0.000  0.000  0.000
       0.000  1.000  0.000  0.000  0.000
       0.000  0.000  1.000  0.000  0.000
       0.000  0.000  0.000  1.000  0.000
       0.000  0.000  0.000  0.000  1.000
     --------------------- ATOM   64 ----------------------
     Tr[ns] (up, down, total) =   3.00000  5.00000  8.00000
     Atomic magnetic moment =  -2.00000
     SPIN  1
     eigenvalues:
       0.600  0.600  0.600  0.600  0.600
     eigenvectors (columns):
       1.000  0.000  0.000  0.000  0.000
       0.000  1.000  0.000  0.000  0.000
       0.000  0.000  1.000  0.000  0.000
       0.000  0.000  0.000  1.000  0.000
       0.000  0.000  0.000  0.000  1.000
     occupation matrix ns (before diag.):
       0.600  0.000  0.000  0.000  0.000
       0.000  0.600  0.000  0.000  0.000
       0.000  0.000  0.600  0.000  0.000
       0.000  0.000  0.000  0.600  0.000
       0.000  0.000  0.000  0.000  0.600
     SPIN  2
     eigenvalues:
       1.000  1.000  1.000  1.000  1.000
     eigenvectors (columns):
       1.000  0.000  0.000  0.000  0.000
       0.000  1.000  0.000  0.000  0.000
       0.000  0.000  1.000  0.000  0.000
       0.000  0.000  0.000  1.000  0.000
       0.000  0.000  0.000  0.000  1.000
     occupation matrix ns (before diag.):
       1.000  0.000  0.000  0.000  0.000
       0.000  1.000  0.000  0.000  0.000
       0.000  0.000  1.000  0.000  0.000
       0.000  0.000  0.000  1.000  0.000
       0.000  0.000  0.000  0.000  1.000

     Number of occupied Hubbard levels =  256.0000
 Atomic wfc used for LDA+U Projector are NOT orthogonalized
     Starting wfcs are  448 randomized atomic wfcs

     total cpu time spent up to now is        3.3 secs

     per-process dynamical memory:    90.9 Mb

     Self-consistent Calculation

     iteration #  1     ecut=   124.58 Ry     beta= 0.25
     Davidson diagonalization with overlap

---- Real-time Memory Report at c_bands before calling an iterative solver
           138 MiB given to the printing process from OS
            88 MiB allocation reported by mallinfo(arena+hblkhd)
        248197 MiB available memory on the node where the printing process lives
------------------
     ethr =  1.00E-02,  avg # of iterations =  9.0

     Hubbard parameters (eV):
     U(  2) =  6.5000
     U(  3) =  6.5000

     ================= HUBBARD OCCUPATIONS ================
     --------------------- ATOM   33 ----------------------
     Tr[ns] (up, down, total) =   4.98866  0.68708  5.67574
     Atomic magnetic moment =   4.30158
     SPIN  1
     eigenvalues:
       0.997  0.997  0.998  0.998  0.998
     eigenvectors (columns):
       0.280  0.951 -0.000 -0.131 -0.016
      -0.105 -0.025  0.577 -0.488  0.646
       0.074 -0.078  0.577 -0.315 -0.746
       0.951 -0.280  0.000 -0.016  0.131
      -0.030 -0.103 -0.577 -0.803 -0.100
     occupation matrix ns (before diag.):
       0.997  0.000  0.000 -0.000  0.000
       0.000  0.998 -0.000  0.000  0.000
       0.000 -0.000  0.998 -0.000  0.000
      -0.000  0.000 -0.000  0.997 -0.000
       0.000  0.000  0.000 -0.000  0.998
     SPIN  2
     eigenvalues:
       0.087  0.087  0.150  0.150  0.213
     eigenvectors (columns):
      -0.423  0.906 -0.035  0.006  0.000
      -0.029  0.002  0.516  0.632 -0.577
       0.016  0.024  0.290 -0.763 -0.577
      -0.906 -0.423 -0.006 -0.035 -0.000
      -0.012  0.026  0.806 -0.130  0.577
     occupation matrix ns (before diag.):
       0.088 -0.001 -0.001 -0.000 -0.002
      -0.001  0.171  0.021 -0.002 -0.021
      -0.001  0.021  0.171  0.002 -0.021
      -0.000 -0.002  0.002  0.088 -0.000
      -0.002 -0.021 -0.021 -0.000  0.171
     --------------------- ATOM   34 ----------------------
     Tr[ns] (up, down, total) =   4.98864  0.69061  5.67925
     Atomic magnetic moment =   4.29803
     SPIN  1
     eigenvalues:
       0.997  0.997  0.998  0.998  0.998
     eigenvectors (columns):
       0.495  0.858 -0.001  0.068  0.118
      -0.113 -0.000 -0.570  0.814 -0.000
       0.053 -0.097 -0.581 -0.400  0.700
       0.858 -0.495 -0.002  0.118 -0.068
      -0.053 -0.097  0.581  0.400  0.700
     occupation matrix ns (before diag.):
       0.997  0.000  0.000 -0.000  0.000
       0.000  0.998 -0.000  0.000  0.000
       0.000 -0.000  0.998 -0.000  0.000
      -0.000  0.000 -0.000  0.997 -0.000
       0.000  0.000  0.000 -0.000  0.998
     SPIN  2
     eigenvalues:
       0.088  0.088  0.151  0.152  0.213
     eigenvectors (columns):
      -0.500  0.865 -0.018 -0.030 -0.000
      -0.029  0.000  0.816 -0.000 -0.577
       0.015  0.025 -0.408  0.707 -0.577
      -0.865 -0.500 -0.031  0.017 -0.001
      -0.015  0.025  0.408  0.707  0.577
     occupation matrix ns (before diag.):
       0.088 -0.001 -0.001 -0.000 -0.002
      -0.001  0.171  0.021 -0.002 -0.021
      -0.001  0.021  0.172  0.002 -0.020
      -0.000 -0.002  0.002  0.088 -0.000
      -0.002 -0.021 -0.020 -0.000  0.172
     --------------------- ATOM   35 ----------------------
     Tr[ns] (up, down, total) =   4.98863  0.69060  5.67923
     Atomic magnetic moment =   4.29802
     SPIN  1
     eigenvalues:
       0.997  0.997  0.998  0.998  0.998
     eigenvectors (columns):
       0.495  0.858 -0.001  0.068  0.116
      -0.110  0.000  0.584  0.805 -0.000
       0.057 -0.095  0.574 -0.409  0.701
       0.858 -0.495 -0.001  0.118 -0.067
      -0.057 -0.095 -0.574  0.409  0.701
     occupation matrix ns (before diag.):
       0.997  0.000  0.000 -0.000  0.000
       0.000  0.998 -0.000  0.000  0.000
       0.000 -0.000  0.998 -0.000  0.000
      -0.000  0.000 -0.000  0.997  0.000
       0.000  0.000  0.000  0.000  0.998
     SPIN  2
     eigenvalues:
       0.087  0.088  0.150  0.153  0.213
     eigenvectors (columns):
       0.865  0.500 -0.031  0.018 -0.000
       0.000  0.028  0.000 -0.815 -0.579
       0.025 -0.015  0.707  0.409 -0.576
      -0.500  0.865  0.018  0.030 -0.000
       0.025  0.015  0.707 -0.409  0.576
     occupation matrix ns (before diag.):
       0.088 -0.001 -0.001  0.000 -0.002
      -0.001  0.173  0.020 -0.002 -0.020
      -0.001  0.020  0.171  0.002 -0.022
       0.000 -0.002  0.002  0.088 -0.000
      -0.002 -0.020 -0.022 -0.000  0.171
     --------------------- ATOM   36 ----------------------
     Tr[ns] (up, down, total) =   4.98864  0.69061  5.67925
     Atomic magnetic moment =   4.29803
     SPIN  1
     eigenvalues:
       0.997  0.997  0.998  0.998  0.998
     eigenvectors (columns):
       0.495  0.858 -0.001  0.068  0.118
       0.053 -0.097 -0.581 -0.400  0.700
      -0.113 -0.000 -0.570  0.814 -0.000
      -0.858  0.495  0.002 -0.118  0.068
      -0.053 -0.097  0.581  0.400  0.700
     occupation matrix ns (before diag.):
       0.997  0.000  0.000  0.000  0.000
       0.000  0.998 -0.000  0.000  0.000
       0.000 -0.000  0.998 -0.000  0.000
       0.000  0.000 -0.000  0.997  0.000
       0.000  0.000  0.000  0.000  0.998
     SPIN  2
     eigenvalues:
       0.088  0.088  0.151  0.152  0.213
     eigenvectors (columns):
       0.500 -0.865  0.018  0.030 -0.000
      -0.015 -0.025  0.408 -0.707 -0.577
       0.029 -0.000 -0.816  0.000 -0.577
      -0.865 -0.500 -0.031  0.017  0.001
       0.015 -0.025 -0.408 -0.707  0.577
     occupation matrix ns (before diag.):
       0.088 -0.001 -0.001  0.000 -0.002
      -0.001  0.172  0.021 -0.002 -0.020
      -0.001  0.021  0.171  0.002 -0.021
       0.000 -0.002  0.002  0.088  0.000
      -0.002 -0.020 -0.021  0.000  0.172
     --------------------- ATOM   37 ----------------------
     Tr[ns] (up, down, total) =   4.98864  0.68975  5.67839
     Atomic magnetic moment =   4.29888
     SPIN  1
     eigenvalues:
       0.997  0.997  0.998  0.998  0.998
     eigenvectors (columns):
       0.000  0.991  0.001 -0.132  0.000
      -0.095 -0.053  0.582 -0.398 -0.701
       0.095 -0.053  0.582 -0.398  0.701
       0.991 -0.000  0.000 -0.000 -0.134
      -0.000 -0.108 -0.568 -0.816  0.000
     occupation matrix ns (before diag.):
       0.997  0.000  0.000 -0.000  0.000
       0.000  0.998 -0.000  0.000  0.000
       0.000 -0.000  0.998 -0.000  0.000
      -0.000  0.000 -0.000  0.997 -0.000
       0.000  0.000  0.000 -0.000  0.998
     SPIN  2
     eigenvalues:
       0.088  0.088  0.151  0.151  0.213
     eigenvectors (columns):
       0.999 -0.000  0.000 -0.036  0.001
       0.015  0.024 -0.707  0.408 -0.577
       0.015 -0.024  0.707  0.408 -0.577
       0.000  0.999  0.034 -0.000 -0.000
       0.029 -0.000  0.000  0.815  0.578
     occupation matrix ns (before diag.):
       0.088 -0.001 -0.001 -0.000 -0.002
      -0.001  0.171  0.021 -0.002 -0.021
      -0.001  0.021  0.171  0.002 -0.021
      -0.000 -0.002  0.002  0.088 -0.000
      -0.002 -0.021 -0.021 -0.000  0.172
     --------------------- ATOM   38 ----------------------
     Tr[ns] (up, down, total) =   4.98864  0.68975  5.67839
     Atomic magnetic moment =   4.29888
     SPIN  1
     eigenvalues:
       0.997  0.997  0.998  0.998  0.998
     eigenvectors (columns):
      -0.858 -0.496 -0.000 -0.066  0.116
       0.095 -0.053  0.582  0.398  0.701
      -0.000  0.108  0.568 -0.816 -0.000
      -0.496  0.858  0.001  0.114  0.067
       0.095  0.053 -0.582 -0.398  0.701
     occupation matrix ns (before diag.):
       0.997  0.000  0.000 -0.000  0.000
       0.000  0.998 -0.000  0.000  0.000
       0.000 -0.000  0.998 -0.000  0.000
      -0.000  0.000 -0.000  0.997  0.000
       0.000  0.000  0.000  0.000  0.998
     SPIN  2
     eigenvalues:
       0.088  0.088  0.151  0.151  0.213
     eigenvectors (columns):
       0.500  0.866  0.030 -0.018 -0.000
      -0.015  0.024 -0.707 -0.408 -0.577
       0.029  0.000 -0.000  0.815 -0.578
      -0.865  0.500  0.017  0.031  0.001
       0.015  0.024 -0.707  0.408  0.577
     occupation matrix ns (before diag.):
       0.088 -0.001 -0.001  0.000 -0.002
      -0.001  0.171  0.021 -0.002 -0.021
      -0.001  0.021  0.172  0.002 -0.021
       0.000 -0.002  0.002  0.088  0.000
      -0.002 -0.021 -0.021  0.000  0.171
     --------------------- ATOM   39 ----------------------
     Tr[ns] (up, down, total) =   4.98863  0.69060  5.67923
     Atomic magnetic moment =   4.29802
     SPIN  1
     eigenvalues:
       0.997  0.997  0.998  0.998  0.998
     eigenvectors (columns):
       0.495  0.858 -0.001  0.068  0.116
       0.057 -0.095  0.574 -0.409  0.701
      -0.110 -0.000  0.584  0.805 -0.000
      -0.858  0.495  0.001 -0.118  0.067
      -0.057 -0.095 -0.574  0.409  0.701
     occupation matrix ns (before diag.):
       0.997  0.000  0.000  0.000  0.000
       0.000  0.998 -0.000  0.000  0.000
       0.000 -0.000  0.998 -0.000  0.000
       0.000  0.000 -0.000  0.997 -0.000
       0.000  0.000  0.000 -0.000  0.998
     SPIN  2
     eigenvalues:
       0.087  0.088  0.150  0.153  0.213
     eigenvectors (columns):
      -0.865 -0.500  0.031 -0.018 -0.000
      -0.025  0.015 -0.707 -0.409 -0.576
       0.000 -0.028 -0.000  0.815 -0.579
      -0.500  0.865  0.018  0.030  0.000
      -0.025 -0.015 -0.707  0.409  0.576
     occupation matrix ns (before diag.):
       0.088 -0.001 -0.001 -0.000 -0.002
      -0.001  0.171  0.020 -0.002 -0.022
      -0.001  0.020  0.173  0.002 -0.020
      -0.000 -0.002  0.002  0.088  0.000
      -0.002 -0.022 -0.020  0.000  0.171
     --------------------- ATOM   40 ----------------------
     Tr[ns] (up, down, total) =   4.98864  0.68975  5.67839
     Atomic magnetic moment =   4.29888
     SPIN  1
     eigenvalues:
       0.997  0.997  0.998  0.998  0.998
     eigenvectors (columns):
      -0.858 -0.496 -0.000 -0.066  0.116
      -0.000  0.108  0.568 -0.816 -0.000
       0.095 -0.053  0.582  0.398  0.701
       0.496 -0.858 -0.001 -0.114 -0.067
       0.095  0.053 -0.582 -0.398  0.701
     occupation matrix ns (before diag.):
       0.997  0.000  0.000  0.000  0.000
       0.000  0.998 -0.000  0.000  0.000
       0.000 -0.000  0.998 -0.000  0.000
       0.000  0.000 -0.000  0.997 -0.000
       0.000  0.000  0.000 -0.000  0.998
     SPIN  2
     eigenvalues:
       0.088  0.088  0.151  0.151  0.213
     eigenvectors (columns):
      -0.500 -0.866  0.030 -0.018 -0.000
      -0.029 -0.000 -0.000  0.815 -0.578
       0.015 -0.024 -0.707 -0.408 -0.577
      -0.865  0.500 -0.017 -0.031 -0.001
      -0.015 -0.024 -0.707  0.408  0.577
     occupation matrix ns (before diag.):
       0.088 -0.001 -0.001 -0.000 -0.002
      -0.001  0.172  0.021 -0.002 -0.021
      -0.001  0.021  0.171  0.002 -0.021
      -0.000 -0.002  0.002  0.088 -0.000
      -0.002 -0.021 -0.021 -0.000  0.171
     --------------------- ATOM   41 ----------------------
     Tr[ns] (up, down, total) =   4.98863  0.69060  5.67923
     Atomic magnetic moment =   4.29802
     SPIN  1
     eigenvalues:
       0.997  0.997  0.998  0.998  0.998
     eigenvectors (columns):
      -0.991 -0.000 -0.001 -0.136 -0.000
       0.057 -0.095 -0.574 -0.409  0.701
       0.057  0.095 -0.574 -0.409 -0.701
      -0.000  0.991 -0.000 -0.000  0.134
       0.110  0.000  0.584 -0.805 -0.000
     occupation matrix ns (before diag.):
       0.997  0.000  0.000 -0.000  0.000
       0.000  0.998 -0.000  0.000  0.000
       0.000 -0.000  0.998 -0.000  0.000
      -0.000  0.000 -0.000  0.997 -0.000
       0.000  0.000  0.000 -0.000  0.998
     SPIN  2
     eigenvalues:
       0.087  0.088  0.150  0.153  0.213
     eigenvectors (columns):
      -0.000  0.999  0.000 -0.035  0.001
      -0.025  0.015 -0.707  0.409 -0.576
       0.025  0.015  0.707  0.409 -0.576
      -0.999 -0.000  0.036 -0.000 -0.000
      -0.000  0.028 -0.000  0.815  0.579
     occupation matrix ns (before diag.):
       0.088 -0.001 -0.001 -0.000 -0.002
      -0.001  0.171  0.022 -0.002 -0.020
      -0.001  0.022  0.171  0.002 -0.020
      -0.000 -0.002  0.002  0.088 -0.000
      -0.002 -0.020 -0.020 -0.000  0.173
     --------------------- ATOM   42 ----------------------
     Tr[ns] (up, down, total) =   4.98864  0.69061  5.67925
     Atomic magnetic moment =   4.29803
     SPIN  1
     eigenvalues:
       0.997  0.997  0.998  0.998  0.998
     eigenvectors (columns):
       0.495  0.858 -0.001  0.068  0.118
      -0.113  0.000 -0.570  0.814 -0.000
       0.053 -0.097 -0.581 -0.400  0.700
       0.858 -0.495 -0.002  0.118 -0.068
      -0.053 -0.097  0.581  0.400  0.700
     occupation matrix ns (before diag.):
       0.997  0.000  0.000 -0.000  0.000
       0.000  0.998 -0.000  0.000  0.000
       0.000 -0.000  0.998 -0.000  0.000
      -0.000  0.000 -0.000  0.997 -0.000
       0.000  0.000  0.000 -0.000  0.998
     SPIN  2
     eigenvalues:
       0.088  0.088  0.151  0.152  0.213
     eigenvectors (columns):
      -0.500  0.865 -0.018 -0.030 -0.000
      -0.029  0.000  0.816 -0.000 -0.577
       0.015  0.025 -0.408  0.707 -0.577
      -0.865 -0.500 -0.031  0.017 -0.001
      -0.015  0.025  0.408  0.707  0.577
     occupation matrix ns (before diag.):
       0.088 -0.001 -0.001 -0.000 -0.002
      -0.001  0.171  0.021 -0.002 -0.021
      -0.001  0.021  0.172  0.002 -0.020
      -0.000 -0.002  0.002  0.088 -0.000
      -0.002 -0.021 -0.020 -0.000  0.172
     --------------------- ATOM   43 ----------------------
     Tr[ns] (up, down, total) =   4.98864  0.69061  5.67925
     Atomic magnetic moment =   4.29803
     SPIN  1
     eigenvalues:
       0.997  0.997  0.998  0.998  0.998
     eigenvectors (columns):
       0.991 -0.000 -0.003 -0.136 -0.000
      -0.053 -0.097  0.581 -0.400  0.700
      -0.053  0.097  0.581 -0.400 -0.700
       0.000  0.991  0.000 -0.000  0.137
      -0.113  0.000 -0.570 -0.814 -0.000
     occupation matrix ns (before diag.):
       0.997  0.000  0.000 -0.000  0.000
       0.000  0.998 -0.000  0.000  0.000
       0.000 -0.000  0.998 -0.000  0.000
      -0.000  0.000 -0.000  0.997 -0.000
       0.000  0.000  0.000 -0.000  0.998
     SPIN  2
     eigenvalues:
       0.088  0.088  0.151  0.152  0.213
     eigenvectors (columns):
      -0.999 -0.000  0.036  0.000  0.001
      -0.015  0.025 -0.408 -0.707 -0.577
      -0.015 -0.025 -0.408  0.707 -0.577
      -0.000  0.999  0.000  0.035 -0.000
      -0.029 -0.000 -0.816  0.000  0.577
     occupation matrix ns (before diag.):
       0.088 -0.001 -0.001 -0.000 -0.002
      -0.001  0.172  0.020 -0.002 -0.021
      -0.001  0.020  0.172  0.002 -0.021
      -0.000 -0.002  0.002  0.088 -0.000
      -0.002 -0.021 -0.021 -0.000  0.171
     --------------------- ATOM   44 ----------------------
     Tr[ns] (up, down, total) =   4.98864  0.69061  5.67925
     Atomic magnetic moment =   4.29803
     SPIN  1
     eigenvalues:
       0.997  0.997  0.998  0.998  0.998
     eigenvectors (columns):
       0.495  0.858 -0.001  0.068  0.118
       0.053 -0.097 -0.581 -0.400  0.700
      -0.113 -0.000 -0.570  0.814 -0.000
      -0.858  0.495  0.002 -0.118  0.068
      -0.053 -0.097  0.581  0.400  0.700
     occupation matrix ns (before diag.):
       0.997  0.000  0.000  0.000  0.000
       0.000  0.998 -0.000  0.000  0.000
       0.000 -0.000  0.998 -0.000  0.000
       0.000  0.000 -0.000  0.997  0.000
       0.000  0.000  0.000  0.000  0.998
     SPIN  2
     eigenvalues:
       0.088  0.088  0.151  0.152  0.213
     eigenvectors (columns):
       0.500 -0.865  0.018  0.030 -0.000
      -0.015 -0.025  0.408 -0.707 -0.577
       0.029 -0.000 -0.816  0.000 -0.577
      -0.865 -0.500 -0.031  0.017  0.001
       0.015 -0.025 -0.408 -0.707  0.577
     occupation matrix ns (before diag.):
       0.088 -0.001 -0.001  0.000 -0.002
      -0.001  0.172  0.021 -0.002 -0.020
      -0.001  0.021  0.171  0.002 -0.021
       0.000 -0.002  0.002  0.088  0.000
[...]
     atom   41 type  2   force =     0.00000308    0.00000621   -0.00000025
     atom   42 type  2   force =     0.00000036   -0.00000692    0.00000083
     atom   43 type  2   force =     0.00000216    0.00000253   -0.00000139
     atom   44 type  2   force =    -0.00000290   -0.00000218   -0.00000195
     atom   45 type  2   force =    -0.00000103   -0.00000129    0.00000214
     atom   46 type  2   force =    -0.00000067    0.00000663    0.00000045
     atom   47 type  2   force =     0.00000381   -0.00000242   -0.00000127
     atom   48 type  2   force =    -0.00000153   -0.00000219   -0.00000062
     atom   49 type  3   force =    -0.00000498    0.00000095    0.00000465
     atom   50 type  3   force =    -0.00000131   -0.00000415   -0.00000066
     atom   51 type  3   force =    -0.00000480   -0.00000215    0.00000155
     atom   52 type  3   force =     0.00000298   -0.00000644   -0.00000125
     atom   53 type  3   force =     0.00000300    0.00000196   -0.00000022
     atom   54 type  3   force =    -0.00000397    0.00000379    0.00000370
     atom   55 type  3   force =     0.00000189    0.00000083   -0.00000179
     atom   56 type  3   force =     0.00000196    0.00000269   -0.00000139
     atom   57 type  3   force =     0.00000205    0.00000557   -0.00000167
     atom   58 type  3   force =     0.00000102    0.00000791   -0.00000143
     atom   59 type  3   force =     0.00000237    0.00000849    0.00000155
     atom   60 type  3   force =     0.00000257   -0.00000236   -0.00000270
     atom   61 type  3   force =     0.00000449   -0.00000323    0.00000321
     atom   62 type  3   force =     0.00000045   -0.00000360    0.00000186
     atom   63 type  3   force =     0.00000052   -0.00000718   -0.00000139
     atom   64 type  3   force =    -0.00000609   -0.00000064   -0.00000066
     The core correction contribution to forces
     atom    1 type  1   force =    -0.00000008   -0.00000028   -0.00000017
     atom    2 type  1   force =     0.00000001   -0.00000001   -0.00000001
     atom    3 type  1   force =     0.00000001    0.00000000   -0.00000013
     atom    4 type  1   force =    -0.00000009    0.00000002   -0.00000000
     atom    5 type  1   force =     0.00000000   -0.00000001    0.00000000
     atom    6 type  1   force =    -0.00000001   -0.00000001    0.00000008
     atom    7 type  1   force =     0.00000003    0.00000005   -0.00000001
     atom    8 type  1   force =     0.00000002    0.00000002    0.00000007
     atom    9 type  1   force =    -0.00000015   -0.00000018   -0.00000012
     atom   10 type  1   force =     0.00000003    0.00000004    0.00000001
     atom   11 type  1   force =    -0.00000003    0.00000001   -0.00000002
     atom   12 type  1   force =    -0.00000012   -0.00000008   -0.00000011
     atom   13 type  1   force =     0.00000001    0.00000001   -0.00000001
     atom   14 type  1   force =    -0.00000015   -0.00000010   -0.00000017
     atom   15 type  1   force =    -0.00000003   -0.00000000    0.00000006
     atom   16 type  1   force =     0.00000002   -0.00000001    0.00000005
     atom   17 type  1   force =     0.00000009   -0.00000006    0.00000001
     atom   18 type  1   force =     0.00000002   -0.00000003    0.00000013
     atom   19 type  1   force =     0.00000000    0.00000001   -0.00000001
     atom   20 type  1   force =     0.00000015    0.00000008    0.00000017
     atom   21 type  1   force =     0.00000001   -0.00000001   -0.00000006
     atom   22 type  1   force =     0.00000010    0.00000009    0.00000012
     atom   23 type  1   force =     0.00000002    0.00000002   -0.00000006
     atom   24 type  1   force =    -0.00000002   -0.00000000   -0.00000002
     atom   25 type  1   force =    -0.00000002    0.00000001    0.00000001
     atom   26 type  1   force =     0.00000015    0.00000028    0.00000012
     atom   27 type  1   force =    -0.00000002    0.00000001   -0.00000000
     atom   28 type  1   force =    -0.00000001   -0.00000005    0.00000000
     atom   29 type  1   force =    -0.00000001   -0.00000002   -0.00000004
     atom   30 type  1   force =    -0.00000005    0.00000002    0.00000000
     atom   31 type  1   force =    -0.00000002    0.00000001   -0.00000003
     atom   32 type  1   force =     0.00000013    0.00000018    0.00000017
     atom   33 type  2   force =    -0.00000006   -0.00000013    0.00000000
     atom   34 type  2   force =     0.00000007   -0.00000016    0.00000003
     atom   35 type  2   force =     0.00000010   -0.00000016    0.00000005
     atom   36 type  2   force =    -0.00000006    0.00000000    0.00000002
     atom   37 type  2   force =    -0.00000003   -0.00000005    0.00000002
     atom   38 type  2   force =     0.00000009   -0.00000003   -0.00000006
     atom   39 type  2   force =    -0.00000007    0.00000015   -0.00000005
     atom   40 type  2   force =    -0.00000006    0.00000020   -0.00000009
     atom   41 type  2   force =     0.00000004    0.00000017   -0.00000004
     atom   42 type  2   force =    -0.00000001   -0.00000019    0.00000002
     atom   43 type  2   force =    -0.00000002    0.00000001    0.00000001
     atom   44 type  2   force =    -0.00000007   -0.00000001   -0.00000002
     atom   45 type  2   force =     0.00000001   -0.00000003    0.00000002
     atom   46 type  2   force =    -0.00000001    0.00000014    0.00000006
     atom   47 type  2   force =     0.00000003    0.00000004    0.00000006
     atom   48 type  2   force =     0.00000001    0.00000008   -0.00000004
     atom   49 type  3   force =    -0.00000001    0.00000007   -0.00000005
     atom   50 type  3   force =    -0.00000009   -0.00000013    0.00000002
     atom   51 type  3   force =    -0.00000003   -0.00000019   -0.00000001
     atom   52 type  3   force =     0.00000008   -0.00000015   -0.00000007
     atom   53 type  3   force =    -0.00000009    0.00000004   -0.00000001
     atom   54 type  3   force =    -0.00000004    0.00000011    0.00000002
     atom   55 type  3   force =     0.00000005   -0.00000005    0.00000005
     atom   56 type  3   force =     0.00000004   -0.00000004   -0.00000000
     atom   57 type  3   force =    -0.00000001    0.00000016    0.00000008
     atom   58 type  3   force =     0.00000005    0.00000014    0.00000003
     atom   59 type  3   force =     0.00000007    0.00000020   -0.00000004
     atom   60 type  3   force =    -0.00000002   -0.00000001   -0.00000000
     atom   61 type  3   force =     0.00000011    0.00000001   -0.00000007
     atom   62 type  3   force =    -0.00000003   -0.00000002    0.00000005
     atom   63 type  3   force =    -0.00000005   -0.00000015   -0.00000002
     atom   64 type  3   force =    -0.00000005   -0.00000001    0.00000002
     The Hubbard contrib.    to forces
     atom    1 type  1   force =     0.00000000    0.00000000    0.00000000
     atom    2 type  1   force =     0.00000000    0.00000000    0.00000000
     atom    3 type  1   force =     0.00000000    0.00000000    0.00000000
     atom    4 type  1   force =     0.00000000    0.00000000    0.00000000
     atom    5 type  1   force =     0.00000000    0.00000000    0.00000000
     atom    6 type  1   force =     0.00000000    0.00000000    0.00000000
     atom    7 type  1   force =     0.00000000    0.00000000    0.00000000
     atom    8 type  1   force =     0.00000000    0.00000000    0.00000000
     atom    9 type  1   force =     0.00000000    0.00000000    0.00000000
     atom   10 type  1   force =     0.00000000    0.00000000    0.00000000
     atom   11 type  1   force =     0.00000000    0.00000000    0.00000000
     atom   12 type  1   force =     0.00000000    0.00000000    0.00000000
     atom   13 type  1   force =     0.00000000    0.00000000    0.00000000
     atom   14 type  1   force =     0.00000000    0.00000000    0.00000000
     atom   15 type  1   force =     0.00000000    0.00000000    0.00000000
     atom   16 type  1   force =     0.00000000    0.00000000    0.00000000
     atom   17 type  1   force =     0.00000000    0.00000000    0.00000000
     atom   18 type  1   force =     0.00000000    0.00000000    0.00000000
     atom   19 type  1   force =     0.00000000    0.00000000    0.00000000
     atom   20 type  1   force =     0.00000000    0.00000000    0.00000000
     atom   21 type  1   force =     0.00000000    0.00000000    0.00000000
     atom   22 type  1   force =     0.00000000    0.00000000    0.00000000
     atom   23 type  1   force =     0.00000000    0.00000000    0.00000000
     atom   24 type  1   force =     0.00000000    0.00000000    0.00000000
     atom   25 type  1   force =     0.00000000    0.00000000    0.00000000
     atom   26 type  1   force =     0.00000000    0.00000000    0.00000000
     atom   27 type  1   force =     0.00000000    0.00000000    0.00000000
     atom   28 type  1   force =     0.00000000    0.00000000    0.00000000
     atom   29 type  1   force =     0.00000000    0.00000000    0.00000000
     atom   30 type  1   force =     0.00000000    0.00000000    0.00000000
     atom   31 type  1   force =     0.00000000    0.00000000    0.00000000
     atom   32 type  1   force =     0.00000000    0.00000000    0.00000000
     atom   33 type  2   force =     0.00000000    0.00000000    0.00000000
     atom   34 type  2   force =    -0.00000013    0.00000000    0.00000013
     atom   35 type  2   force =    -0.00000000    0.00000000   -0.00000000
     atom   36 type  2   force =    -0.00000000   -0.00000013    0.00000013
     atom   37 type  2   force =     0.00000008    0.00000008   -0.00000008
     atom   38 type  2   force =    -0.00000008    0.00000008    0.00000008
     atom   39 type  2   force =     0.00000000    0.00000000    0.00000000
     atom   40 type  2   force =     0.00000008   -0.00000008    0.00000008
     atom   41 type  2   force =    -0.00000000    0.00000000    0.00000000
     atom   42 type  2   force =     0.00000013    0.00000000   -0.00000013
     atom   43 type  2   force =     0.00000013   -0.00000013    0.00000000
     atom   44 type  2   force =     0.00000000    0.00000013   -0.00000013
     atom   45 type  2   force =    -0.00000013    0.00000013    0.00000000
     atom   46 type  2   force =    -0.00000008    0.00000008   -0.00000008
     atom   47 type  2   force =     0.00000008   -0.00000008   -0.00000008
     atom   48 type  2   force =    -0.00000008   -0.00000008    0.00000008
     atom   49 type  3   force =    -0.00000010   -0.00000010    0.00000010
     atom   50 type  3   force =     0.00000000   -0.00000000   -0.00000000
     atom   51 type  3   force =    -0.00000010    0.00000010   -0.00000010
     atom   52 type  3   force =     0.00000000   -0.00000000    0.00000000
     atom   53 type  3   force =     0.00000010   -0.00000010   -0.00000010
     atom   54 type  3   force =     0.00000000    0.00000000    0.00000000
     atom   55 type  3   force =     0.00000000    0.00000011   -0.00000011
     atom   56 type  3   force =    -0.00000011    0.00000011    0.00000000
     atom   57 type  3   force =     0.00000011    0.00000000   -0.00000011
     atom   58 type  3   force =     0.00000000   -0.00000000    0.00000000
     atom   59 type  3   force =    -0.00000011    0.00000000    0.00000011
     atom   60 type  3   force =     0.00000011   -0.00000011   -0.00000000
     atom   61 type  3   force =     0.00000000   -0.00000011    0.00000011
     atom   62 type  3   force =     0.00000010    0.00000010   -0.00000010
     atom   63 type  3   force =     0.00000010   -0.00000010    0.00000010
     atom   64 type  3   force =    -0.00000010    0.00000010    0.00000010
     The SCF correction term to forces
     atom    1 type  1   force =    -0.00000066   -0.00000353   -0.00000270
     atom    2 type  1   force =    -0.00000261   -0.00000133   -0.00000310
     atom    3 type  1   force =    -0.00000453   -0.00000281   -0.00000216
     atom    4 type  1   force =    -0.00000422   -0.00000019   -0.00000585
     atom    5 type  1   force =    -0.00000268   -0.00000525   -0.00000257
     atom    6 type  1   force =    -0.00000244   -0.00000550   -0.00000238
     atom    7 type  1   force =    -0.00000310   -0.00000486   -0.00000393
     atom    8 type  1   force =    -0.00000360   -0.00000262   -0.00000625
     atom    9 type  1   force =    -0.00000335   -0.00000495   -0.00000268
     atom   10 type  1   force =    -0.00000571   -0.00000595   -0.00000450
     atom   11 type  1   force =    -0.00000502   -0.00000430   -0.00000299
     atom   12 type  1   force =    -0.00000357   -0.00000344   -0.00000176
     atom   13 type  1   force =    -0.00000346   -0.00000354   -0.00000331
     atom   14 type  1   force =    -0.00000317   -0.00000211   -0.00000216
     atom   15 type  1   force =    -0.00000404   -0.00000066   -0.00000451
     atom   16 type  1   force =    -0.00000086   -0.00000240   -0.00000434
     atom   17 type  1   force =     0.00000266    0.00000491    0.00000411
     atom   18 type  1   force =     0.00000515    0.00000250    0.00000235
     atom   19 type  1   force =     0.00000176    0.00000262    0.00000297
     atom   20 type  1   force =     0.00000304    0.00000393    0.00000307
     atom   21 type  1   force =     0.00000299    0.00000437    0.00000250
     atom   22 type  1   force =     0.00000129    0.00000242    0.00000133
     atom   23 type  1   force =     0.00000406    0.00000183    0.00000570
     atom   24 type  1   force =     0.00000335   -0.00000021    0.00000406
     atom   25 type  1   force =     0.00000331    0.00000019    0.00000403
     atom   26 type  1   force =     0.00000363    0.00000382    0.00000148
     atom   27 type  1   force =     0.00000070    0.00000538    0.00000434
     atom   28 type  1   force =     0.00000294    0.00000584    0.00000496
     atom   29 type  1   force =     0.00000408    0.00000461    0.00000398
     atom   30 type  1   force =     0.00000675    0.00000105    0.00000421
     atom   31 type  1   force =     0.00000416    0.00000500    0.00000295
     atom   32 type  1   force =     0.00000289    0.00000483    0.00000275
     atom   33 type  2   force =    -0.00000083    0.00000510   -0.00000577
     atom   34 type  2   force =    -0.00000058    0.00000454   -0.00000018
     atom   35 type  2   force =     0.00000036    0.00000654    0.00000244
     atom   36 type  2   force =     0.00000397    0.00000162   -0.00000293
     atom   37 type  2   force =    -0.00000175    0.00000114    0.00000768
     atom   38 type  2   force =     0.00000246   -0.00000325   -0.00000443
     atom   39 type  2   force =     0.00000504   -0.00000529    0.00000540
     atom   40 type  2   force =    -0.00000006   -0.00000252   -0.00000189
     atom   41 type  2   force =    -0.00000417   -0.00000801   -0.00000042
     atom   42 type  2   force =    -0.00000023    0.00000916    0.00000068
     atom   43 type  2   force =    -0.00000310   -0.00000199    0.00000232
     atom   44 type  2   force =     0.00000288    0.00000067    0.00000436
     atom   45 type  2   force =     0.00000227   -0.00000101   -0.00000331
     atom   46 type  2   force =     0.00000163   -0.00000919   -0.00000051
     atom   47 type  2   force =    -0.00000510    0.00000338    0.00000192
     atom   48 type  2   force =     0.00000286    0.00000338    0.00000023
     atom   49 type  3   force =     0.00000722    0.00000149   -0.00000863
     atom   50 type  3   force =     0.00000041    0.00000562    0.00000177
     atom   51 type  3   force =     0.00000683    0.00000169   -0.00000082
     atom   52 type  3   force =    -0.00000274    0.00000864    0.00000006
     atom   53 type  3   force =    -0.00000647   -0.00000050    0.00000110
     atom   54 type  3   force =     0.00000542   -0.00000522   -0.00000547
     atom   55 type  3   force =    -0.00000246   -0.00000118    0.00000310
     atom   56 type  3   force =    -0.00000103   -0.00000410    0.00000244
     atom   57 type  3   force =    -0.00000410   -0.00000772    0.00000323
     atom   58 type  3   force =    -0.00000095   -0.00001056    0.00000296
     atom   59 type  3   force =    -0.00000157   -0.00001140   -0.00000284
     atom   60 type  3   force =    -0.00000507    0.00000248    0.00000479
     atom   61 type  3   force =    -0.00000534    0.00000394   -0.00000520
     atom   62 type  3   force =    -0.00000124    0.00000310   -0.00000264
     atom   63 type  3   force =    -0.00000164    0.00000971    0.00000053
     atom   64 type  3   force =     0.00000832   -0.00000072    0.00000006

     Total force =     0.000006     Total SCF correction =     0.000056
     SCF correction compared to forces is large: reduce conv_thr to get better values

     Writing all to output data dir ./out/NiO-cubic.save/

     init_run     :      3.01s CPU      3.20s WALL (       1 calls)
     electrons    :    182.17s CPU    186.93s WALL (       1 calls)
     forces       :      6.44s CPU      6.48s WALL (       1 calls)

     Called by init_run:
     wfcinit      :      2.14s CPU      2.25s WALL (       1 calls)
     wfcinit:atom :      0.01s CPU      0.02s WALL (       2 calls)
     wfcinit:wfcr :      1.78s CPU      1.81s WALL (       2 calls)
     potinit      :      0.17s CPU      0.21s WALL (       1 calls)
     hinit0       :      0.63s CPU      0.65s WALL (       1 calls)

     Called by electrons:
     c_bands      :    168.50s CPU    172.61s WALL (      28 calls)
     sum_band     :     11.09s CPU     11.13s WALL (      28 calls)
     v_of_rho     :      1.94s CPU      1.98s WALL (      29 calls)
     v_h          :      0.08s CPU      0.08s WALL (      29 calls)
     v_xc         :      1.92s CPU      1.94s WALL (      30 calls)
     mix_rho      :      0.45s CPU      0.48s WALL (      28 calls)

     Called by c_bands:
     init_us_2    :      1.86s CPU      1.87s WALL (     120 calls)
     init_us_2:cp :      1.86s CPU      1.87s WALL (     120 calls)
     regterg      :    164.54s CPU    168.49s WALL (      56 calls)

     Called by sum_band:
     sum_band:wei :      0.00s CPU      0.00s WALL (      28 calls)
     sum_band:loo :      9.34s CPU      9.38s WALL (      28 calls)
     sum_band:buf :      0.49s CPU      0.49s WALL (      56 calls)
     sum_band:ini :      0.87s CPU      0.87s WALL (      56 calls)

     Called by *egterg:
     rdiaghg      :     42.54s CPU     42.58s WALL (     237 calls)
     regterg:over :     11.65s CPU     11.68s WALL (     181 calls)
     regterg:upda :      6.80s CPU      6.82s WALL (     181 calls)
     regterg:last :     12.89s CPU     12.91s WALL (     110 calls)
     h_psi        :     84.44s CPU     84.84s WALL (     239 calls)
     g_psi        :      0.26s CPU      0.26s WALL (     181 calls)

     Called by h_psi:
     h_psi:calbec :     12.67s CPU     12.70s WALL (     239 calls)
     vloc_psi     :     36.44s CPU     36.55s WALL (     239 calls)
     add_vuspsi   :     11.01s CPU     11.21s WALL (     239 calls)
     vhpsi        :     23.25s CPU     23.31s WALL (     239 calls)

     General routines
     calbec       :     20.75s CPU     20.82s WALL (    2084 calls)
     fft          :      1.14s CPU      1.16s WALL (     445 calls)
     ffts         :      0.07s CPU      0.07s WALL (      56 calls)
     fftw         :     40.46s CPU     40.60s WALL (   69668 calls)
     davcio       :      0.00s CPU      0.01s WALL (       2 calls)

     Parallel routines

     Hubbard U routines
     new_ns       :      1.57s CPU      1.58s WALL (      28 calls)
     vhpsi        :     23.25s CPU     23.31s WALL (     239 calls)
     force_hub    :      5.21s CPU      5.23s WALL (       1 calls)

     PWSCF        :   3m12.19s CPU   3m17.55s WALL


   This run was terminated on:  15:45:49  17Oct2022            

=------------------------------------------------------------------------------=
   JOB DONE.
=------------------------------------------------------------------------------=
