
     Program PWSCF v.7.0 starts on 17Oct2022 at 15:53:53 

     This program is part of the open-source Quantum ESPRESSO suite
     for quantum simulation of materials; please cite
         "P. Giannozzi et al., J. Phys.:Condens. Matter 21 395502 (2009);
         "P. Giannozzi et al., J. Phys.:Condens. Matter 29 465901 (2017);
         "P. Giannozzi et al., J. Chem. Phys. 152 154105 (2020);
          URL http://www.quantum-espresso.org", 
     in publications or presentations arising from this work. More details at
     http://www.quantum-espresso.org/quote

     Parallel version (MPI), running on    32 processors

     MPI processes distributed on     1 nodes
     R & G space division:  proc/nbgrp/npool/nimage =      32
     249831 MiB available memory on the printing compute node when the environment starts

     Waiting for input...
     Reading input from standard input

     Current dimensions of program PWSCF are:
     Max number of different atomic species (ntypx) = 10
     Max number of k-points (npk) =  40000
     Max angular momentum in pseudopotentials (lmaxx) =  4

     IMPORTANT: XC functional enforced from input :
     Exchange-correlation= PBE
                           (   1   4   3   4   0   0   0)
     Any further DFT definition will be discarded
     Please, verify this is what you really want


     gamma-point specific algorithms are used
     Found identity + ( -0.2500 -0.2500 -0.5000) symmetry
     This is a supercell, fractional translations are disabled

     Subspace diagonalization in iterative solution of the eigenvalue problem:
     a serial algorithm will be used


     Parallelization info
     --------------------
     sticks:   dense  smooth     PW     G-vecs:    dense   smooth      PW
     Min         506     506    126                48813    48813    6094
     Max         508     508    128                48832    48832    6108
     Sum       16237   16237   4049              1562363  1562363  195167

     Using Slab Decomposition



     bravais-lattice index     =            8
     lattice parameter (alat)  =      15.7622  a.u.
     unit-cell volume          =    3916.0705 (a.u.)^3
     number of atoms/cell      =           64
     number of atomic types    =            3
     number of electrons       =       768.00
     number of Kohn-Sham states=          448
     kinetic-energy cutoff     =     205.9350  Ry
     charge density cutoff     =     823.7400  Ry
     scf convergence threshold =      1.0E-08
     mixing beta               =       0.2500
     number of iterations used =            8  plain     mixing
     Exchange-correlation= PBE
                           (   1   4   3   4   0   0   0)

     celldm(1)=  15.762200  celldm(2)=   1.000000  celldm(3)=   1.000000
     celldm(4)=   0.000000  celldm(5)=   0.000000  celldm(6)=   0.000000

     crystal axes: (cart. coord. in units of alat)
               a(1) = (   1.000000   0.000000   0.000000 )  
               a(2) = (   0.000000   1.000000   0.000000 )  
               a(3) = (   0.000000   0.000000   1.000000 )  

     reciprocal axes: (cart. coord. in units 2 pi/alat)
               b(1) = (  1.000000  0.000000  0.000000 )  
               b(2) = (  0.000000  1.000000  0.000000 )  
               b(3) = (  0.000000  0.000000  1.000000 )  


     PseudoPot. # 1 for O  read from file:
     /home/emil/Pseudo/nc-sr-04_pbe_stringent/O.upf
     MD5 check sum: 9db02a5ece9d56b81b65a73f8163743d
     Pseudo is Norm-conserving + core correction, Zval =  6.0
     Generated using ONCVPSP code by D. R. Hamann
     Using radial grid of  936 points,  5 beta functions with: 
                l(1) =   0
                l(2) =   0
                l(3) =   1
                l(4) =   1
                l(5) =   2

     PseudoPot. # 2 for Ni read from file:
     /home/emil/Pseudo/nc-sr-04_pbe_stringent/Ni.upf
     MD5 check sum: ff72d48937b3d9f5815e777d24fa1439
     Pseudo is Norm-conserving + core correction, Zval = 18.0
     Generated using ONCVPSP code by D. R. Hamann
     Using radial grid of 1372 points,  6 beta functions with: 
                l(1) =   0
                l(2) =   0
                l(3) =   1
                l(4) =   1
                l(5) =   2
                l(6) =   2

     PseudoPot. # 3 for Ni read from file:
     /home/emil/Pseudo/nc-sr-04_pbe_stringent/Ni.upf
     MD5 check sum: ff72d48937b3d9f5815e777d24fa1439
     Pseudo is Norm-conserving + core correction, Zval = 18.0
     Generated using ONCVPSP code by D. R. Hamann
     Using radial grid of 1372 points,  6 beta functions with: 
                l(1) =   0
                l(2) =   0
                l(3) =   1
                l(4) =   1
                l(5) =   2
                l(6) =   2

     atomic species   valence    mass     pseudopotential
        O              6.00     1.00000     O ( 1.00)
        Ni            18.00     1.00000     Ni( 1.00)
        Ni1           18.00     1.00000     Ni( 1.00)

     Starting magnetic structure 
     atomic species   magnetization
        O            0.000
        Ni           1.000
        Ni1         -1.000


     Simplified LDA+U calculation (l_max = 2) with parameters (eV):
     atomic species    L          U    alpha       J0     beta
        Ni             2     6.5000   0.0000   0.0000   0.0000
        Ni1            2     6.5000   0.0000   0.0000   0.0000



     12 Sym. Ops., with inversion, found


                                    s                        frac. trans.

      isym =  1     identity                                     

 cryst.   s( 1) = (     1          0          0      )
                  (     0          1          0      )
                  (     0          0          1      )

 cart.    s( 1) = (  1.0000000  0.0000000  0.0000000 )
                  (  0.0000000  1.0000000  0.0000000 )
                  (  0.0000000  0.0000000  1.0000000 )


      isym =  2     180 deg rotation - cart. axis [1,-1,0]       

 cryst.   s( 2) = (     0         -1          0      )
                  (    -1          0          0      )
                  (     0          0         -1      )

 cart.    s( 2) = (  0.0000000 -1.0000000  0.0000000 )
                  ( -1.0000000  0.0000000  0.0000000 )
                  (  0.0000000  0.0000000 -1.0000000 )


      isym =  3     180 deg rotation - cart. axis [-1,0,1]       

 cryst.   s( 3) = (     0          0         -1      )
                  (     0         -1          0      )
                  (    -1          0          0      )

 cart.    s( 3) = (  0.0000000  0.0000000 -1.0000000 )
                  (  0.0000000 -1.0000000  0.0000000 )
                  ( -1.0000000  0.0000000  0.0000000 )


      isym =  4     180 deg rotation - cart. axis [0,1,-1]       

 cryst.   s( 4) = (    -1          0          0      )
                  (     0          0         -1      )
                  (     0         -1          0      )

 cart.    s( 4) = ( -1.0000000  0.0000000  0.0000000 )
                  (  0.0000000  0.0000000 -1.0000000 )
                  (  0.0000000 -1.0000000  0.0000000 )


      isym =  5     120 deg rotation - cart. axis [-1,-1,-1]     

 cryst.   s( 5) = (     0          0          1      )
                  (     1          0          0      )
                  (     0          1          0      )

 cart.    s( 5) = (  0.0000000  1.0000000  0.0000000 )
                  (  0.0000000  0.0000000  1.0000000 )
                  (  1.0000000  0.0000000  0.0000000 )


      isym =  6     120 deg rotation - cart. axis [1,1,1]        

 cryst.   s( 6) = (     0          1          0      )
                  (     0          0          1      )
                  (     1          0          0      )

 cart.    s( 6) = (  0.0000000  0.0000000  1.0000000 )
                  (  1.0000000  0.0000000  0.0000000 )
                  (  0.0000000  1.0000000  0.0000000 )


      isym =  7     inversion                                    

 cryst.   s( 7) = (    -1          0          0      )
                  (     0         -1          0      )
                  (     0          0         -1      )

 cart.    s( 7) = ( -1.0000000  0.0000000  0.0000000 )
                  (  0.0000000 -1.0000000  0.0000000 )
                  (  0.0000000  0.0000000 -1.0000000 )


      isym =  8     inv. 180 deg rotation - cart. axis [1,-1,0]  

 cryst.   s( 8) = (     0          1          0      )
                  (     1          0          0      )
                  (     0          0          1      )

 cart.    s( 8) = (  0.0000000  1.0000000  0.0000000 )
                  (  1.0000000  0.0000000  0.0000000 )
                  (  0.0000000  0.0000000  1.0000000 )


      isym =  9     inv. 180 deg rotation - cart. axis [-1,0,1]  

 cryst.   s( 9) = (     0          0          1      )
                  (     0          1          0      )
                  (     1          0          0      )

 cart.    s( 9) = (  0.0000000  0.0000000  1.0000000 )
                  (  0.0000000  1.0000000  0.0000000 )
                  (  1.0000000  0.0000000  0.0000000 )


      isym = 10     inv. 180 deg rotation - cart. axis [0,1,-1]  

 cryst.   s(10) = (     1          0          0      )
                  (     0          0          1      )
                  (     0          1          0      )

 cart.    s(10) = (  1.0000000  0.0000000  0.0000000 )
                  (  0.0000000  0.0000000  1.0000000 )
                  (  0.0000000  1.0000000  0.0000000 )


      isym = 11     inv. 120 deg rotation - cart. axis [-1,-1,-1]

 cryst.   s(11) = (     0          0         -1      )
                  (    -1          0          0      )
                  (     0         -1          0      )

 cart.    s(11) = (  0.0000000 -1.0000000  0.0000000 )
                  (  0.0000000  0.0000000 -1.0000000 )
                  ( -1.0000000  0.0000000  0.0000000 )


      isym = 12     inv. 120 deg rotation - cart. axis [1,1,1]   

 cryst.   s(12) = (     0         -1          0      )
                  (     0          0         -1      )
                  (    -1          0          0      )

 cart.    s(12) = (  0.0000000  0.0000000 -1.0000000 )
                  ( -1.0000000  0.0000000  0.0000000 )
                  (  0.0000000 -1.0000000  0.0000000 )


     point group D_3d (-3m) 
     there are  6 classes
     the character table:

       E     2C3   3C2'  i     2S6   3s_d 
A_1g   1.00  1.00  1.00  1.00  1.00  1.00
A_2g   1.00  1.00 -1.00  1.00  1.00 -1.00
E_g    2.00 -1.00  0.00  2.00 -1.00  0.00
A_1u   1.00  1.00  1.00 -1.00 -1.00 -1.00
A_2u   1.00  1.00 -1.00 -1.00 -1.00  1.00
E_u    2.00 -1.00  0.00 -2.00  1.00  0.00

     the symmetry operations in each class and the name of the first element:

     E        1
          identity                                               
     2C3      5    6
          120 deg rotation - cart. axis [-1,-1,-1]               
     3C2'     2    4    3
          180 deg rotation - cart. axis [1,-1,0]                 
     i        7
          inversion                                              
     2S6     11   12
          inv. 120 deg rotation - cart. axis [-1,-1,-1]          
     3s_d     8   10    9
          inv. 180 deg rotation - cart. axis [1,-1,0]            

   Cartesian axes

     site n.     atom                  positions (alat units)
         1           O   tau(   1) = (   0.2500000   0.2500000   0.2500000  )
         2           O   tau(   2) = (   0.0000000   0.0000000   0.7500000  )
         3           O   tau(   3) = (   0.2500000   0.0000000   0.5000000  )
         4           O   tau(   4) = (   0.5000000   0.0000000   0.2500000  )
         5           O   tau(   5) = (   0.0000000   0.2500000   0.5000000  )
         6           O   tau(   6) = (   0.5000000   0.2500000   0.0000000  )
         7           O   tau(   7) = (   0.0000000   0.5000000   0.2500000  )
         8           O   tau(   8) = (   0.2500000   0.5000000   0.0000000  )
         9           O   tau(   9) = (   0.7500000   0.2500000   0.7500000  )
        10           O   tau(  10) = (   0.5000000   0.5000000   0.7500000  )
        11           O   tau(  11) = (   0.7500000   0.5000000   0.5000000  )
        12           O   tau(  12) = (   0.2500000   0.7500000   0.7500000  )
        13           O   tau(  13) = (   0.5000000   0.7500000   0.5000000  )
        14           O   tau(  14) = (   0.7500000   0.7500000   0.2500000  )
        15           O   tau(  15) = (   0.7500000   0.0000000   0.0000000  )
        16           O   tau(  16) = (   0.0000000   0.7500000   0.0000000  )
        17           O   tau(  17) = (   0.0000000   0.0000000   0.2500000  )
        18           O   tau(  18) = (   0.2500000   0.0000000   0.0000000  )
        19           O   tau(  19) = (   0.0000000   0.2500000   0.0000000  )
        20           O   tau(  20) = (   0.2500000   0.2500000   0.7500000  )
        21           O   tau(  21) = (   0.5000000   0.2500000   0.5000000  )
        22           O   tau(  22) = (   0.7500000   0.2500000   0.2500000  )
        23           O   tau(  23) = (   0.2500000   0.5000000   0.5000000  )
        24           O   tau(  24) = (   0.5000000   0.5000000   0.2500000  )
        25           O   tau(  25) = (   0.7500000   0.5000000   0.0000000  )
        26           O   tau(  26) = (   0.2500000   0.7500000   0.2500000  )
        27           O   tau(  27) = (   0.5000000   0.7500000   0.0000000  )
        28           O   tau(  28) = (   0.5000000   0.0000000   0.7500000  )
        29           O   tau(  29) = (   0.7500000   0.0000000   0.5000000  )
        30           O   tau(  30) = (   0.0000000   0.5000000   0.7500000  )
        31           O   tau(  31) = (   0.0000000   0.7500000   0.5000000  )
        32           O   tau(  32) = (   0.7500000   0.7500000   0.7500000  )
        33           Ni  tau(  33) = (   0.0000000   0.0000000   0.0000000  )
        34           Ni  tau(  34) = (   0.2500000   0.0000000   0.7500000  )
        35           Ni  tau(  35) = (   0.5000000   0.0000000   0.5000000  )
        36           Ni  tau(  36) = (   0.0000000   0.2500000   0.7500000  )
        37           Ni  tau(  37) = (   0.2500000   0.2500000   0.5000000  )
        38           Ni  tau(  38) = (   0.5000000   0.2500000   0.2500000  )
        39           Ni  tau(  39) = (   0.0000000   0.5000000   0.5000000  )
        40           Ni  tau(  40) = (   0.2500000   0.5000000   0.2500000  )
        41           Ni  tau(  41) = (   0.5000000   0.5000000   0.0000000  )
        42           Ni  tau(  42) = (   0.7500000   0.0000000   0.2500000  )
        43           Ni  tau(  43) = (   0.7500000   0.2500000   0.0000000  )
        44           Ni  tau(  44) = (   0.0000000   0.7500000   0.2500000  )
        45           Ni  tau(  45) = (   0.2500000   0.7500000   0.0000000  )
        46           Ni  tau(  46) = (   0.7500000   0.5000000   0.7500000  )
        47           Ni  tau(  47) = (   0.5000000   0.7500000   0.7500000  )
        48           Ni  tau(  48) = (   0.7500000   0.7500000   0.5000000  )
        49           Ni1 tau(  49) = (   0.2500000   0.2500000   0.0000000  )
        50           Ni1 tau(  50) = (   0.0000000   0.0000000   0.5000000  )
        51           Ni1 tau(  51) = (   0.2500000   0.0000000   0.2500000  )
        52           Ni1 tau(  52) = (   0.5000000   0.0000000   0.0000000  )
        53           Ni1 tau(  53) = (   0.0000000   0.2500000   0.2500000  )
        54           Ni1 tau(  54) = (   0.0000000   0.5000000   0.0000000  )
        55           Ni1 tau(  55) = (   0.5000000   0.2500000   0.7500000  )
        56           Ni1 tau(  56) = (   0.7500000   0.2500000   0.5000000  )
        57           Ni1 tau(  57) = (   0.2500000   0.5000000   0.7500000  )
        58           Ni1 tau(  58) = (   0.5000000   0.5000000   0.5000000  )
        59           Ni1 tau(  59) = (   0.7500000   0.5000000   0.2500000  )
        60           Ni1 tau(  60) = (   0.2500000   0.7500000   0.5000000  )
        61           Ni1 tau(  61) = (   0.5000000   0.7500000   0.2500000  )
        62           Ni1 tau(  62) = (   0.7500000   0.7500000   0.0000000  )
        63           Ni1 tau(  63) = (   0.7500000   0.0000000   0.7500000  )
        64           Ni1 tau(  64) = (   0.0000000   0.7500000   0.7500000  )

   Crystallographic axes

     site n.     atom                  positions (cryst. coord.)
         1           O   tau(   1) = (  0.2500000  0.2500000  0.2500000  )
         2           O   tau(   2) = (  0.0000000  0.0000000  0.7500000  )
         3           O   tau(   3) = (  0.2500000  0.0000000  0.5000000  )
         4           O   tau(   4) = (  0.5000000  0.0000000  0.2500000  )
         5           O   tau(   5) = (  0.0000000  0.2500000  0.5000000  )
         6           O   tau(   6) = (  0.5000000  0.2500000  0.0000000  )
         7           O   tau(   7) = (  0.0000000  0.5000000  0.2500000  )
         8           O   tau(   8) = (  0.2500000  0.5000000  0.0000000  )
         9           O   tau(   9) = (  0.7500000  0.2500000  0.7500000  )
        10           O   tau(  10) = (  0.5000000  0.5000000  0.7500000  )
        11           O   tau(  11) = (  0.7500000  0.5000000  0.5000000  )
        12           O   tau(  12) = (  0.2500000  0.7500000  0.7500000  )
        13           O   tau(  13) = (  0.5000000  0.7500000  0.5000000  )
        14           O   tau(  14) = (  0.7500000  0.7500000  0.2500000  )
        15           O   tau(  15) = (  0.7500000  0.0000000  0.0000000  )
        16           O   tau(  16) = (  0.0000000  0.7500000  0.0000000  )
        17           O   tau(  17) = (  0.0000000  0.0000000  0.2500000  )
        18           O   tau(  18) = (  0.2500000  0.0000000  0.0000000  )
        19           O   tau(  19) = (  0.0000000  0.2500000  0.0000000  )
        20           O   tau(  20) = (  0.2500000  0.2500000  0.7500000  )
        21           O   tau(  21) = (  0.5000000  0.2500000  0.5000000  )
        22           O   tau(  22) = (  0.7500000  0.2500000  0.2500000  )
        23           O   tau(  23) = (  0.2500000  0.5000000  0.5000000  )
        24           O   tau(  24) = (  0.5000000  0.5000000  0.2500000  )
        25           O   tau(  25) = (  0.7500000  0.5000000  0.0000000  )
        26           O   tau(  26) = (  0.2500000  0.7500000  0.2500000  )
        27           O   tau(  27) = (  0.5000000  0.7500000  0.0000000  )
        28           O   tau(  28) = (  0.5000000  0.0000000  0.7500000  )
        29           O   tau(  29) = (  0.7500000  0.0000000  0.5000000  )
        30           O   tau(  30) = (  0.0000000  0.5000000  0.7500000  )
        31           O   tau(  31) = (  0.0000000  0.7500000  0.5000000  )
        32           O   tau(  32) = (  0.7500000  0.7500000  0.7500000  )
        33           Ni  tau(  33) = (  0.0000000  0.0000000  0.0000000  )
        34           Ni  tau(  34) = (  0.2500000  0.0000000  0.7500000  )
        35           Ni  tau(  35) = (  0.5000000  0.0000000  0.5000000  )
        36           Ni  tau(  36) = (  0.0000000  0.2500000  0.7500000  )
        37           Ni  tau(  37) = (  0.2500000  0.2500000  0.5000000  )
        38           Ni  tau(  38) = (  0.5000000  0.2500000  0.2500000  )
        39           Ni  tau(  39) = (  0.0000000  0.5000000  0.5000000  )
        40           Ni  tau(  40) = (  0.2500000  0.5000000  0.2500000  )
        41           Ni  tau(  41) = (  0.5000000  0.5000000  0.0000000  )
        42           Ni  tau(  42) = (  0.7500000  0.0000000  0.2500000  )
        43           Ni  tau(  43) = (  0.7500000  0.2500000  0.0000000  )
        44           Ni  tau(  44) = (  0.0000000  0.7500000  0.2500000  )
        45           Ni  tau(  45) = (  0.2500000  0.7500000  0.0000000  )
        46           Ni  tau(  46) = (  0.7500000  0.5000000  0.7500000  )
        47           Ni  tau(  47) = (  0.5000000  0.7500000  0.7500000  )
        48           Ni  tau(  48) = (  0.7500000  0.7500000  0.5000000  )
        49           Ni1 tau(  49) = (  0.2500000  0.2500000  0.0000000  )
        50           Ni1 tau(  50) = (  0.0000000  0.0000000  0.5000000  )
        51           Ni1 tau(  51) = (  0.2500000  0.0000000  0.2500000  )
        52           Ni1 tau(  52) = (  0.5000000  0.0000000  0.0000000  )
        53           Ni1 tau(  53) = (  0.0000000  0.2500000  0.2500000  )
        54           Ni1 tau(  54) = (  0.0000000  0.5000000  0.0000000  )
        55           Ni1 tau(  55) = (  0.5000000  0.2500000  0.7500000  )
        56           Ni1 tau(  56) = (  0.7500000  0.2500000  0.5000000  )
        57           Ni1 tau(  57) = (  0.2500000  0.5000000  0.7500000  )
        58           Ni1 tau(  58) = (  0.5000000  0.5000000  0.5000000  )
        59           Ni1 tau(  59) = (  0.7500000  0.5000000  0.2500000  )
        60           Ni1 tau(  60) = (  0.2500000  0.7500000  0.5000000  )
        61           Ni1 tau(  61) = (  0.5000000  0.7500000  0.2500000  )
        62           Ni1 tau(  62) = (  0.7500000  0.7500000  0.0000000  )
        63           Ni1 tau(  63) = (  0.7500000  0.0000000  0.7500000  )
        64           Ni1 tau(  64) = (  0.0000000  0.7500000  0.7500000  )

     number of k points=     1  Marzari-Vanderbilt smearing, width (Ry)=  0.0002
                       cart. coord. in units 2pi/alat
        k(    1) = (   0.0000000   0.0000000   0.0000000), wk =   1.0000000

                       cryst. coord.
        k(    1) = (   0.0000000   0.0000000   0.0000000), wk =   1.0000000

     Dense  grid:   781182 G-vectors     FFT dimensions: ( 144, 144, 144)

     Dynamical RAM for                 wfc:      20.87 MB

     Dynamical RAM for     wfc (w. buffer):      62.61 MB

     Dynamical RAM for             U proj.:       7.45 MB

     Dynamical RAM for  U proj. (w. buff.):      22.36 MB

     Dynamical RAM for           str. fact:       1.12 MB

     Dynamical RAM for           local pot:       0.00 MB

     Dynamical RAM for          nlocal pot:      46.21 MB

     Dynamical RAM for                qrad:       6.91 MB

     Dynamical RAM for          rho,v,vnew:       6.98 MB

     Dynamical RAM for               rhoin:       2.33 MB

     Dynamical RAM for            rho*nmix:      11.92 MB

     Dynamical RAM for           G-vectors:       1.58 MB

     Dynamical RAM for          h,s,v(r/c):      18.38 MB

     Dynamical RAM for          <psi|beta>:       3.39 MB

     Dynamical RAM for                 psi:      41.74 MB

     Dynamical RAM for                hpsi:      41.74 MB

     Dynamical RAM for      wfcinit/wfcrot:      46.34 MB

     Estimated static dynamical RAM per process >     156.34 MB

     Estimated max dynamical RAM per process >     273.50 MB

     Estimated total dynamical RAM >       8.55 GB
     Generating pointlists ...
     new r_m :   0.1031 (alat units)  1.6255 (a.u.) for type    1
     new r_m :   0.1031 (alat units)  1.6255 (a.u.) for type    2
     new r_m :   0.1031 (alat units)  1.6255 (a.u.) for type    3

     Initial potential from superposition of free atoms

     starting charge     767.9928, renormalised to     768.0000

     HUBBARD ENERGY =    9.1726  (Ry)
     Number of +U iterations with fixed ns =  0
     Starting occupations:

     Hubbard parameters (eV):
     U(  2) =  6.5000
     U(  3) =  6.5000

     ================= HUBBARD OCCUPATIONS ================
     --------------------- ATOM   33 ----------------------
     Tr[ns] (up, down, total) =   5.00000  3.00000  8.00000
     Atomic magnetic moment =   2.00000
     SPIN  1
     eigenvalues:
       1.000  1.000  1.000  1.000  1.000
     eigenvectors (columns):
       1.000  0.000  0.000  0.000  0.000
       0.000  1.000  0.000  0.000  0.000
       0.000  0.000  1.000  0.000  0.000
       0.000  0.000  0.000  1.000  0.000
       0.000  0.000  0.000  0.000  1.000
     occupation matrix ns (before diag.):
       1.000  0.000  0.000  0.000  0.000
       0.000  1.000  0.000  0.000  0.000
       0.000  0.000  1.000  0.000  0.000
       0.000  0.000  0.000  1.000  0.000
       0.000  0.000  0.000  0.000  1.000
     SPIN  2
     eigenvalues:
       0.600  0.600  0.600  0.600  0.600
     eigenvectors (columns):
       1.000  0.000  0.000  0.000  0.000
       0.000  1.000  0.000  0.000  0.000
       0.000  0.000  1.000  0.000  0.000
       0.000  0.000  0.000  1.000  0.000
       0.000  0.000  0.000  0.000  1.000
     occupation matrix ns (before diag.):
       0.600  0.000  0.000  0.000  0.000
       0.000  0.600  0.000  0.000  0.000
       0.000  0.000  0.600  0.000  0.000
       0.000  0.000  0.000  0.600  0.000
       0.000  0.000  0.000  0.000  0.600
     --------------------- ATOM   34 ----------------------
     Tr[ns] (up, down, total) =   5.00000  3.00000  8.00000
     Atomic magnetic moment =   2.00000
     SPIN  1
     eigenvalues:
       1.000  1.000  1.000  1.000  1.000
     eigenvectors (columns):
       1.000  0.000  0.000  0.000  0.000
       0.000  1.000  0.000  0.000  0.000
       0.000  0.000  1.000  0.000  0.000
       0.000  0.000  0.000  1.000  0.000
       0.000  0.000  0.000  0.000  1.000
     occupation matrix ns (before diag.):
       1.000  0.000  0.000  0.000  0.000
       0.000  1.000  0.000  0.000  0.000
       0.000  0.000  1.000  0.000  0.000
       0.000  0.000  0.000  1.000  0.000
       0.000  0.000  0.000  0.000  1.000
     SPIN  2
     eigenvalues:
       0.600  0.600  0.600  0.600  0.600
     eigenvectors (columns):
       1.000  0.000  0.000  0.000  0.000
       0.000  1.000  0.000  0.000  0.000
       0.000  0.000  1.000  0.000  0.000
       0.000  0.000  0.000  1.000  0.000
       0.000  0.000  0.000  0.000  1.000
     occupation matrix ns (before diag.):
       0.600  0.000  0.000  0.000  0.000
       0.000  0.600  0.000  0.000  0.000
       0.000  0.000  0.600  0.000  0.000
       0.000  0.000  0.000  0.600  0.000
       0.000  0.000  0.000  0.000  0.600
     --------------------- ATOM   35 ----------------------
     Tr[ns] (up, down, total) =   5.00000  3.00000  8.00000
     Atomic magnetic moment =   2.00000
     SPIN  1
     eigenvalues:
       1.000  1.000  1.000  1.000  1.000
     eigenvectors (columns):
       1.000  0.000  0.000  0.000  0.000
       0.000  1.000  0.000  0.000  0.000
       0.000  0.000  1.000  0.000  0.000
       0.000  0.000  0.000  1.000  0.000
       0.000  0.000  0.000  0.000  1.000
     occupation matrix ns (before diag.):
       1.000  0.000  0.000  0.000  0.000
       0.000  1.000  0.000  0.000  0.000
       0.000  0.000  1.000  0.000  0.000
       0.000  0.000  0.000  1.000  0.000
       0.000  0.000  0.000  0.000  1.000
     SPIN  2
     eigenvalues:
       0.600  0.600  0.600  0.600  0.600
     eigenvectors (columns):
       1.000  0.000  0.000  0.000  0.000
       0.000  1.000  0.000  0.000  0.000
       0.000  0.000  1.000  0.000  0.000
       0.000  0.000  0.000  1.000  0.000
       0.000  0.000  0.000  0.000  1.000
     occupation matrix ns (before diag.):
       0.600  0.000  0.000  0.000  0.000
       0.000  0.600  0.000  0.000  0.000
       0.000  0.000  0.600  0.000  0.000
       0.000  0.000  0.000  0.600  0.000
       0.000  0.000  0.000  0.000  0.600
     --------------------- ATOM   36 ----------------------
     Tr[ns] (up, down, total) =   5.00000  3.00000  8.00000
     Atomic magnetic moment =   2.00000
     SPIN  1
     eigenvalues:
       1.000  1.000  1.000  1.000  1.000
     eigenvectors (columns):
       1.000  0.000  0.000  0.000  0.000
       0.000  1.000  0.000  0.000  0.000
       0.000  0.000  1.000  0.000  0.000
       0.000  0.000  0.000  1.000  0.000
       0.000  0.000  0.000  0.000  1.000
     occupation matrix ns (before diag.):
       1.000  0.000  0.000  0.000  0.000
       0.000  1.000  0.000  0.000  0.000
       0.000  0.000  1.000  0.000  0.000
       0.000  0.000  0.000  1.000  0.000
       0.000  0.000  0.000  0.000  1.000
     SPIN  2
     eigenvalues:
       0.600  0.600  0.600  0.600  0.600
     eigenvectors (columns):
       1.000  0.000  0.000  0.000  0.000
       0.000  1.000  0.000  0.000  0.000
       0.000  0.000  1.000  0.000  0.000
       0.000  0.000  0.000  1.000  0.000
       0.000  0.000  0.000  0.000  1.000
     occupation matrix ns (before diag.):
       0.600  0.000  0.000  0.000  0.000
       0.000  0.600  0.000  0.000  0.000
       0.000  0.000  0.600  0.000  0.000
       0.000  0.000  0.000  0.600  0.000
       0.000  0.000  0.000  0.000  0.600
     --------------------- ATOM   37 ----------------------
     Tr[ns] (up, down, total) =   5.00000  3.00000  8.00000
     Atomic magnetic moment =   2.00000
     SPIN  1
     eigenvalues:
       1.000  1.000  1.000  1.000  1.000
     eigenvectors (columns):
       1.000  0.000  0.000  0.000  0.000
       0.000  1.000  0.000  0.000  0.000
       0.000  0.000  1.000  0.000  0.000
       0.000  0.000  0.000  1.000  0.000
       0.000  0.000  0.000  0.000  1.000
     occupation matrix ns (before diag.):
       1.000  0.000  0.000  0.000  0.000
       0.000  1.000  0.000  0.000  0.000
       0.000  0.000  1.000  0.000  0.000
       0.000  0.000  0.000  1.000  0.000
       0.000  0.000  0.000  0.000  1.000
     SPIN  2
     eigenvalues:
       0.600  0.600  0.600  0.600  0.600
     eigenvectors (columns):
       1.000  0.000  0.000  0.000  0.000
       0.000  1.000  0.000  0.000  0.000
       0.000  0.000  1.000  0.000  0.000
       0.000  0.000  0.000  1.000  0.000
       0.000  0.000  0.000  0.000  1.000
     occupation matrix ns (before diag.):
       0.600  0.000  0.000  0.000  0.000
       0.000  0.600  0.000  0.000  0.000
       0.000  0.000  0.600  0.000  0.000
       0.000  0.000  0.000  0.600  0.000
       0.000  0.000  0.000  0.000  0.600
     --------------------- ATOM   38 ----------------------
     Tr[ns] (up, down, total) =   5.00000  3.00000  8.00000
     Atomic magnetic moment =   2.00000
     SPIN  1
     eigenvalues:
       1.000  1.000  1.000  1.000  1.000
     eigenvectors (columns):
       1.000  0.000  0.000  0.000  0.000
       0.000  1.000  0.000  0.000  0.000
       0.000  0.000  1.000  0.000  0.000
       0.000  0.000  0.000  1.000  0.000
       0.000  0.000  0.000  0.000  1.000
     occupation matrix ns (before diag.):
       1.000  0.000  0.000  0.000  0.000
       0.000  1.000  0.000  0.000  0.000
       0.000  0.000  1.000  0.000  0.000
       0.000  0.000  0.000  1.000  0.000
       0.000  0.000  0.000  0.000  1.000
     SPIN  2
     eigenvalues:
       0.600  0.600  0.600  0.600  0.600
     eigenvectors (columns):
       1.000  0.000  0.000  0.000  0.000
       0.000  1.000  0.000  0.000  0.000
       0.000  0.000  1.000  0.000  0.000
       0.000  0.000  0.000  1.000  0.000
       0.000  0.000  0.000  0.000  1.000
     occupation matrix ns (before diag.):
       0.600  0.000  0.000  0.000  0.000
       0.000  0.600  0.000  0.000  0.000
       0.000  0.000  0.600  0.000  0.000
       0.000  0.000  0.000  0.600  0.000
       0.000  0.000  0.000  0.000  0.600
     --------------------- ATOM   39 ----------------------
     Tr[ns] (up, down, total) =   5.00000  3.00000  8.00000
     Atomic magnetic moment =   2.00000
     SPIN  1
     eigenvalues:
       1.000  1.000  1.000  1.000  1.000
     eigenvectors (columns):
       1.000  0.000  0.000  0.000  0.000
       0.000  1.000  0.000  0.000  0.000
       0.000  0.000  1.000  0.000  0.000
       0.000  0.000  0.000  1.000  0.000
       0.000  0.000  0.000  0.000  1.000
     occupation matrix ns (before diag.):
       1.000  0.000  0.000  0.000  0.000
       0.000  1.000  0.000  0.000  0.000
       0.000  0.000  1.000  0.000  0.000
       0.000  0.000  0.000  1.000  0.000
       0.000  0.000  0.000  0.000  1.000
     SPIN  2
     eigenvalues:
       0.600  0.600  0.600  0.600  0.600
     eigenvectors (columns):
       1.000  0.000  0.000  0.000  0.000
       0.000  1.000  0.000  0.000  0.000
       0.000  0.000  1.000  0.000  0.000
       0.000  0.000  0.000  1.000  0.000
       0.000  0.000  0.000  0.000  1.000
     occupation matrix ns (before diag.):
       0.600  0.000  0.000  0.000  0.000
       0.000  0.600  0.000  0.000  0.000
       0.000  0.000  0.600  0.000  0.000
       0.000  0.000  0.000  0.600  0.000
       0.000  0.000  0.000  0.000  0.600
     --------------------- ATOM   40 ----------------------
     Tr[ns] (up, down, total) =   5.00000  3.00000  8.00000
     Atomic magnetic moment =   2.00000
     SPIN  1
     eigenvalues:
       1.000  1.000  1.000  1.000  1.000
     eigenvectors (columns):
       1.000  0.000  0.000  0.000  0.000
       0.000  1.000  0.000  0.000  0.000
       0.000  0.000  1.000  0.000  0.000
       0.000  0.000  0.000  1.000  0.000
       0.000  0.000  0.000  0.000  1.000
     occupation matrix ns (before diag.):
       1.000  0.000  0.000  0.000  0.000
       0.000  1.000  0.000  0.000  0.000
       0.000  0.000  1.000  0.000  0.000
       0.000  0.000  0.000  1.000  0.000
       0.000  0.000  0.000  0.000  1.000
     SPIN  2
     eigenvalues:
       0.600  0.600  0.600  0.600  0.600
     eigenvectors (columns):
       1.000  0.000  0.000  0.000  0.000
       0.000  1.000  0.000  0.000  0.000
       0.000  0.000  1.000  0.000  0.000
       0.000  0.000  0.000  1.000  0.000
       0.000  0.000  0.000  0.000  1.000
     occupation matrix ns (before diag.):
       0.600  0.000  0.000  0.000  0.000
       0.000  0.600  0.000  0.000  0.000
       0.000  0.000  0.600  0.000  0.000
       0.000  0.000  0.000  0.600  0.000
       0.000  0.000  0.000  0.000  0.600
     --------------------- ATOM   41 ----------------------
     Tr[ns] (up, down, total) =   5.00000  3.00000  8.00000
     Atomic magnetic moment =   2.00000
     SPIN  1
     eigenvalues:
       1.000  1.000  1.000  1.000  1.000
     eigenvectors (columns):
       1.000  0.000  0.000  0.000  0.000
       0.000  1.000  0.000  0.000  0.000
       0.000  0.000  1.000  0.000  0.000
       0.000  0.000  0.000  1.000  0.000
       0.000  0.000  0.000  0.000  1.000
     occupation matrix ns (before diag.):
       1.000  0.000  0.000  0.000  0.000
       0.000  1.000  0.000  0.000  0.000
       0.000  0.000  1.000  0.000  0.000
       0.000  0.000  0.000  1.000  0.000
       0.000  0.000  0.000  0.000  1.000
     SPIN  2
     eigenvalues:
       0.600  0.600  0.600  0.600  0.600
     eigenvectors (columns):
       1.000  0.000  0.000  0.000  0.000
       0.000  1.000  0.000  0.000  0.000
       0.000  0.000  1.000  0.000  0.000
       0.000  0.000  0.000  1.000  0.000
       0.000  0.000  0.000  0.000  1.000
     occupation matrix ns (before diag.):
       0.600  0.000  0.000  0.000  0.000
       0.000  0.600  0.000  0.000  0.000
       0.000  0.000  0.600  0.000  0.000
       0.000  0.000  0.000  0.600  0.000
       0.000  0.000  0.000  0.000  0.600
     --------------------- ATOM   42 ----------------------
     Tr[ns] (up, down, total) =   5.00000  3.00000  8.00000
     Atomic magnetic moment =   2.00000
     SPIN  1
     eigenvalues:
       1.000  1.000  1.000  1.000  1.000
     eigenvectors (columns):
       1.000  0.000  0.000  0.000  0.000
       0.000  1.000  0.000  0.000  0.000
       0.000  0.000  1.000  0.000  0.000
       0.000  0.000  0.000  1.000  0.000
       0.000  0.000  0.000  0.000  1.000
     occupation matrix ns (before diag.):
       1.000  0.000  0.000  0.000  0.000
       0.000  1.000  0.000  0.000  0.000
       0.000  0.000  1.000  0.000  0.000
       0.000  0.000  0.000  1.000  0.000
       0.000  0.000  0.000  0.000  1.000
     SPIN  2
     eigenvalues:
       0.600  0.600  0.600  0.600  0.600
     eigenvectors (columns):
       1.000  0.000  0.000  0.000  0.000
       0.000  1.000  0.000  0.000  0.000
       0.000  0.000  1.000  0.000  0.000
       0.000  0.000  0.000  1.000  0.000
       0.000  0.000  0.000  0.000  1.000
     occupation matrix ns (before diag.):
       0.600  0.000  0.000  0.000  0.000
       0.000  0.600  0.000  0.000  0.000
       0.000  0.000  0.600  0.000  0.000
       0.000  0.000  0.000  0.600  0.000
       0.000  0.000  0.000  0.000  0.600
     --------------------- ATOM   43 ----------------------
     Tr[ns] (up, down, total) =   5.00000  3.00000  8.00000
     Atomic magnetic moment =   2.00000
     SPIN  1
     eigenvalues:
       1.000  1.000  1.000  1.000  1.000
     eigenvectors (columns):
       1.000  0.000  0.000  0.000  0.000
       0.000  1.000  0.000  0.000  0.000
       0.000  0.000  1.000  0.000  0.000
       0.000  0.000  0.000  1.000  0.000
       0.000  0.000  0.000  0.000  1.000
     occupation matrix ns (before diag.):
       1.000  0.000  0.000  0.000  0.000
       0.000  1.000  0.000  0.000  0.000
       0.000  0.000  1.000  0.000  0.000
       0.000  0.000  0.000  1.000  0.000
       0.000  0.000  0.000  0.000  1.000
     SPIN  2
     eigenvalues:
       0.600  0.600  0.600  0.600  0.600
     eigenvectors (columns):
       1.000  0.000  0.000  0.000  0.000
       0.000  1.000  0.000  0.000  0.000
       0.000  0.000  1.000  0.000  0.000
       0.000  0.000  0.000  1.000  0.000
       0.000  0.000  0.000  0.000  1.000
     occupation matrix ns (before diag.):
       0.600  0.000  0.000  0.000  0.000
       0.000  0.600  0.000  0.000  0.000
       0.000  0.000  0.600  0.000  0.000
       0.000  0.000  0.000  0.600  0.000
       0.000  0.000  0.000  0.000  0.600
     --------------------- ATOM   44 ----------------------
     Tr[ns] (up, down, total) =   5.00000  3.00000  8.00000
     Atomic magnetic moment =   2.00000
     SPIN  1
     eigenvalues:
       1.000  1.000  1.000  1.000  1.000
     eigenvectors (columns):
       1.000  0.000  0.000  0.000  0.000
       0.000  1.000  0.000  0.000  0.000
       0.000  0.000  1.000  0.000  0.000
       0.000  0.000  0.000  1.000  0.000
       0.000  0.000  0.000  0.000  1.000
     occupation matrix ns (before diag.):
       1.000  0.000  0.000  0.000  0.000
       0.000  1.000  0.000  0.000  0.000
       0.000  0.000  1.000  0.000  0.000
       0.000  0.000  0.000  1.000  0.000
       0.000  0.000  0.000  0.000  1.000
     SPIN  2
     eigenvalues:
       0.600  0.600  0.600  0.600  0.600
     eigenvectors (columns):
       1.000  0.000  0.000  0.000  0.000
       0.000  1.000  0.000  0.000  0.000
       0.000  0.000  1.000  0.000  0.000
       0.000  0.000  0.000  1.000  0.000
       0.000  0.000  0.000  0.000  1.000
     occupation matrix ns (before diag.):
       0.600  0.000  0.000  0.000  0.000
       0.000  0.600  0.000  0.000  0.000
       0.000  0.000  0.600  0.000  0.000
       0.000  0.000  0.000  0.600  0.000
       0.000  0.000  0.000  0.000  0.600
     --------------------- ATOM   45 ----------------------
     Tr[ns] (up, down, total) =   5.00000  3.00000  8.00000
     Atomic magnetic moment =   2.00000
     SPIN  1
     eigenvalues:
       1.000  1.000  1.000  1.000  1.000
     eigenvectors (columns):
       1.000  0.000  0.000  0.000  0.000
       0.000  1.000  0.000  0.000  0.000
       0.000  0.000  1.000  0.000  0.000
       0.000  0.000  0.000  1.000  0.000
       0.000  0.000  0.000  0.000  1.000
     occupation matrix ns (before diag.):
       1.000  0.000  0.000  0.000  0.000
       0.000  1.000  0.000  0.000  0.000
       0.000  0.000  1.000  0.000  0.000
       0.000  0.000  0.000  1.000  0.000
       0.000  0.000  0.000  0.000  1.000
     SPIN  2
     eigenvalues:
       0.600  0.600  0.600  0.600  0.600
     eigenvectors (columns):
       1.000  0.000  0.000  0.000  0.000
       0.000  1.000  0.000  0.000  0.000
       0.000  0.000  1.000  0.000  0.000
       0.000  0.000  0.000  1.000  0.000
       0.000  0.000  0.000  0.000  1.000
     occupation matrix ns (before diag.):
       0.600  0.000  0.000  0.000  0.000
       0.000  0.600  0.000  0.000  0.000
       0.000  0.000  0.600  0.000  0.000
       0.000  0.000  0.000  0.600  0.000
       0.000  0.000  0.000  0.000  0.600
     --------------------- ATOM   46 ----------------------
     Tr[ns] (up, down, total) =   5.00000  3.00000  8.00000
     Atomic magnetic moment =   2.00000
     SPIN  1
     eigenvalues:
       1.000  1.000  1.000  1.000  1.000
     eigenvectors (columns):
       1.000  0.000  0.000  0.000  0.000
       0.000  1.000  0.000  0.000  0.000
       0.000  0.000  1.000  0.000  0.000
       0.000  0.000  0.000  1.000  0.000
       0.000  0.000  0.000  0.000  1.000
     occupation matrix ns (before diag.):
       1.000  0.000  0.000  0.000  0.000
       0.000  1.000  0.000  0.000  0.000
       0.000  0.000  1.000  0.000  0.000
       0.000  0.000  0.000  1.000  0.000
       0.000  0.000  0.000  0.000  1.000
     SPIN  2
     eigenvalues:
       0.600  0.600  0.600  0.600  0.600
     eigenvectors (columns):
       1.000  0.000  0.000  0.000  0.000
       0.000  1.000  0.000  0.000  0.000
       0.000  0.000  1.000  0.000  0.000
       0.000  0.000  0.000  1.000  0.000
       0.000  0.000  0.000  0.000  1.000
     occupation matrix ns (before diag.):
       0.600  0.000  0.000  0.000  0.000
       0.000  0.600  0.000  0.000  0.000
       0.000  0.000  0.600  0.000  0.000
       0.000  0.000  0.000  0.600  0.000
       0.000  0.000  0.000  0.000  0.600
     --------------------- ATOM   47 ----------------------
     Tr[ns] (up, down, total) =   5.00000  3.00000  8.00000
     Atomic magnetic moment =   2.00000
     SPIN  1
     eigenvalues:
       1.000  1.000  1.000  1.000  1.000
     eigenvectors (columns):
       1.000  0.000  0.000  0.000  0.000
       0.000  1.000  0.000  0.000  0.000
       0.000  0.000  1.000  0.000  0.000
       0.000  0.000  0.000  1.000  0.000
       0.000  0.000  0.000  0.000  1.000
     occupation matrix ns (before diag.):
       1.000  0.000  0.000  0.000  0.000
       0.000  1.000  0.000  0.000  0.000
       0.000  0.000  1.000  0.000  0.000
       0.000  0.000  0.000  1.000  0.000
       0.000  0.000  0.000  0.000  1.000
     SPIN  2
     eigenvalues:
       0.600  0.600  0.600  0.600  0.600
     eigenvectors (columns):
       1.000  0.000  0.000  0.000  0.000
       0.000  1.000  0.000  0.000  0.000
       0.000  0.000  1.000  0.000  0.000
       0.000  0.000  0.000  1.000  0.000
       0.000  0.000  0.000  0.000  1.000
     occupation matrix ns (before diag.):
       0.600  0.000  0.000  0.000  0.000
       0.000  0.600  0.000  0.000  0.000
       0.000  0.000  0.600  0.000  0.000
       0.000  0.000  0.000  0.600  0.000
       0.000  0.000  0.000  0.000  0.600
     --------------------- ATOM   48 ----------------------
     Tr[ns] (up, down, total) =   5.00000  3.00000  8.00000
     Atomic magnetic moment =   2.00000
     SPIN  1
     eigenvalues:
       1.000  1.000  1.000  1.000  1.000
     eigenvectors (columns):
       1.000  0.000  0.000  0.000  0.000
       0.000  1.000  0.000  0.000  0.000
       0.000  0.000  1.000  0.000  0.000
       0.000  0.000  0.000  1.000  0.000
       0.000  0.000  0.000  0.000  1.000
     occupation matrix ns (before diag.):
       1.000  0.000  0.000  0.000  0.000
       0.000  1.000  0.000  0.000  0.000
       0.000  0.000  1.000  0.000  0.000
       0.000  0.000  0.000  1.000  0.000
       0.000  0.000  0.000  0.000  1.000
     SPIN  2
     eigenvalues:
       0.600  0.600  0.600  0.600  0.600
     eigenvectors (columns):
       1.000  0.000  0.000  0.000  0.000
       0.000  1.000  0.000  0.000  0.000
       0.000  0.000  1.000  0.000  0.000
       0.000  0.000  0.000  1.000  0.000
       0.000  0.000  0.000  0.000  1.000
     occupation matrix ns (before diag.):
       0.600  0.000  0.000  0.000  0.000
       0.000  0.600  0.000  0.000  0.000
       0.000  0.000  0.600  0.000  0.000
       0.000  0.000  0.000  0.600  0.000
       0.000  0.000  0.000  0.000  0.600
     --------------------- ATOM   49 ----------------------
     Tr[ns] (up, down, total) =   3.00000  5.00000  8.00000
     Atomic magnetic moment =  -2.00000
     SPIN  1
     eigenvalues:
       0.600  0.600  0.600  0.600  0.600
     eigenvectors (columns):
       1.000  0.000  0.000  0.000  0.000
       0.000  1.000  0.000  0.000  0.000
       0.000  0.000  1.000  0.000  0.000
       0.000  0.000  0.000  1.000  0.000
       0.000  0.000  0.000  0.000  1.000
     occupation matrix ns (before diag.):
       0.600  0.000  0.000  0.000  0.000
       0.000  0.600  0.000  0.000  0.000
       0.000  0.000  0.600  0.000  0.000
       0.000  0.000  0.000  0.600  0.000
       0.000  0.000  0.000  0.000  0.600
     SPIN  2
     eigenvalues:
       1.000  1.000  1.000  1.000  1.000
     eigenvectors (columns):
       1.000  0.000  0.000  0.000  0.000
       0.000  1.000  0.000  0.000  0.000
       0.000  0.000  1.000  0.000  0.000
       0.000  0.000  0.000  1.000  0.000
       0.000  0.000  0.000  0.000  1.000
     occupation matrix ns (before diag.):
       1.000  0.000  0.000  0.000  0.000
       0.000  1.000  0.000  0.000  0.000
       0.000  0.000  1.000  0.000  0.000
       0.000  0.000  0.000  1.000  0.000
       0.000  0.000  0.000  0.000  1.000
     --------------------- ATOM   50 ----------------------
     Tr[ns] (up, down, total) =   3.00000  5.00000  8.00000
     Atomic magnetic moment =  -2.00000
     SPIN  1
     eigenvalues:
       0.600  0.600  0.600  0.600  0.600
     eigenvectors (columns):
       1.000  0.000  0.000  0.000  0.000
       0.000  1.000  0.000  0.000  0.000
       0.000  0.000  1.000  0.000  0.000
       0.000  0.000  0.000  1.000  0.000
       0.000  0.000  0.000  0.000  1.000
     occupation matrix ns (before diag.):
       0.600  0.000  0.000  0.000  0.000
       0.000  0.600  0.000  0.000  0.000
       0.000  0.000  0.600  0.000  0.000
       0.000  0.000  0.000  0.600  0.000
       0.000  0.000  0.000  0.000  0.600
     SPIN  2
     eigenvalues:
       1.000  1.000  1.000  1.000  1.000
     eigenvectors (columns):
       1.000  0.000  0.000  0.000  0.000
       0.000  1.000  0.000  0.000  0.000
       0.000  0.000  1.000  0.000  0.000
       0.000  0.000  0.000  1.000  0.000
       0.000  0.000  0.000  0.000  1.000
     occupation matrix ns (before diag.):
       1.000  0.000  0.000  0.000  0.000
       0.000  1.000  0.000  0.000  0.000
       0.000  0.000  1.000  0.000  0.000
       0.000  0.000  0.000  1.000  0.000
       0.000  0.000  0.000  0.000  1.000
     --------------------- ATOM   51 ----------------------
     Tr[ns] (up, down, total) =   3.00000  5.00000  8.00000
     Atomic magnetic moment =  -2.00000
     SPIN  1
     eigenvalues:
       0.600  0.600  0.600  0.600  0.600
     eigenvectors (columns):
       1.000  0.000  0.000  0.000  0.000
       0.000  1.000  0.000  0.000  0.000
       0.000  0.000  1.000  0.000  0.000
       0.000  0.000  0.000  1.000  0.000
       0.000  0.000  0.000  0.000  1.000
     occupation matrix ns (before diag.):
       0.600  0.000  0.000  0.000  0.000
       0.000  0.600  0.000  0.000  0.000
       0.000  0.000  0.600  0.000  0.000
       0.000  0.000  0.000  0.600  0.000
       0.000  0.000  0.000  0.000  0.600
     SPIN  2
     eigenvalues:
       1.000  1.000  1.000  1.000  1.000
     eigenvectors (columns):
       1.000  0.000  0.000  0.000  0.000
       0.000  1.000  0.000  0.000  0.000
       0.000  0.000  1.000  0.000  0.000
       0.000  0.000  0.000  1.000  0.000
       0.000  0.000  0.000  0.000  1.000
     occupation matrix ns (before diag.):
       1.000  0.000  0.000  0.000  0.000
       0.000  1.000  0.000  0.000  0.000
       0.000  0.000  1.000  0.000  0.000
       0.000  0.000  0.000  1.000  0.000
       0.000  0.000  0.000  0.000  1.000
     --------------------- ATOM   52 ----------------------
     Tr[ns] (up, down, total) =   3.00000  5.00000  8.00000
     Atomic magnetic moment =  -2.00000
     SPIN  1
     eigenvalues:
       0.600  0.600  0.600  0.600  0.600
     eigenvectors (columns):
       1.000  0.000  0.000  0.000  0.000
       0.000  1.000  0.000  0.000  0.000
       0.000  0.000  1.000  0.000  0.000
       0.000  0.000  0.000  1.000  0.000
       0.000  0.000  0.000  0.000  1.000
     occupation matrix ns (before diag.):
       0.600  0.000  0.000  0.000  0.000
       0.000  0.600  0.000  0.000  0.000
       0.000  0.000  0.600  0.000  0.000
       0.000  0.000  0.000  0.600  0.000
       0.000  0.000  0.000  0.000  0.600
     SPIN  2
     eigenvalues:
       1.000  1.000  1.000  1.000  1.000
     eigenvectors (columns):
       1.000  0.000  0.000  0.000  0.000
       0.000  1.000  0.000  0.000  0.000
       0.000  0.000  1.000  0.000  0.000
       0.000  0.000  0.000  1.000  0.000
       0.000  0.000  0.000  0.000  1.000
     occupation matrix ns (before diag.):
       1.000  0.000  0.000  0.000  0.000
       0.000  1.000  0.000  0.000  0.000
       0.000  0.000  1.000  0.000  0.000
       0.000  0.000  0.000  1.000  0.000
       0.000  0.000  0.000  0.000  1.000
     --------------------- ATOM   53 ----------------------
     Tr[ns] (up, down, total) =   3.00000  5.00000  8.00000
     Atomic magnetic moment =  -2.00000
     SPIN  1
     eigenvalues:
       0.600  0.600  0.600  0.600  0.600
     eigenvectors (columns):
       1.000  0.000  0.000  0.000  0.000
       0.000  1.000  0.000  0.000  0.000
       0.000  0.000  1.000  0.000  0.000
       0.000  0.000  0.000  1.000  0.000
       0.000  0.000  0.000  0.000  1.000
     occupation matrix ns (before diag.):
       0.600  0.000  0.000  0.000  0.000
       0.000  0.600  0.000  0.000  0.000
       0.000  0.000  0.600  0.000  0.000
       0.000  0.000  0.000  0.600  0.000
       0.000  0.000  0.000  0.000  0.600
     SPIN  2
     eigenvalues:
       1.000  1.000  1.000  1.000  1.000
     eigenvectors (columns):
       1.000  0.000  0.000  0.000  0.000
       0.000  1.000  0.000  0.000  0.000
       0.000  0.000  1.000  0.000  0.000
       0.000  0.000  0.000  1.000  0.000
       0.000  0.000  0.000  0.000  1.000
     occupation matrix ns (before diag.):
       1.000  0.000  0.000  0.000  0.000
       0.000  1.000  0.000  0.000  0.000
       0.000  0.000  1.000  0.000  0.000
       0.000  0.000  0.000  1.000  0.000
       0.000  0.000  0.000  0.000  1.000
     --------------------- ATOM   54 ----------------------
     Tr[ns] (up, down, total) =   3.00000  5.00000  8.00000
     Atomic magnetic moment =  -2.00000
     SPIN  1
     eigenvalues:
       0.600  0.600  0.600  0.600  0.600
     eigenvectors (columns):
       1.000  0.000  0.000  0.000  0.000
       0.000  1.000  0.000  0.000  0.000
       0.000  0.000  1.000  0.000  0.000
       0.000  0.000  0.000  1.000  0.000
       0.000  0.000  0.000  0.000  1.000
     occupation matrix ns (before diag.):
       0.600  0.000  0.000  0.000  0.000
       0.000  0.600  0.000  0.000  0.000
       0.000  0.000  0.600  0.000  0.000
       0.000  0.000  0.000  0.600  0.000
       0.000  0.000  0.000  0.000  0.600
     SPIN  2
     eigenvalues:
       1.000  1.000  1.000  1.000  1.000
     eigenvectors (columns):
       1.000  0.000  0.000  0.000  0.000
       0.000  1.000  0.000  0.000  0.000
       0.000  0.000  1.000  0.000  0.000
       0.000  0.000  0.000  1.000  0.000
       0.000  0.000  0.000  0.000  1.000
     occupation matrix ns (before diag.):
       1.000  0.000  0.000  0.000  0.000
       0.000  1.000  0.000  0.000  0.000
       0.000  0.000  1.000  0.000  0.000
       0.000  0.000  0.000  1.000  0.000
       0.000  0.000  0.000  0.000  1.000
     --------------------- ATOM   55 ----------------------
     Tr[ns] (up, down, total) =   3.00000  5.00000  8.00000
     Atomic magnetic moment =  -2.00000
     SPIN  1
     eigenvalues:
       0.600  0.600  0.600  0.600  0.600
     eigenvectors (columns):
       1.000  0.000  0.000  0.000  0.000
       0.000  1.000  0.000  0.000  0.000
       0.000  0.000  1.000  0.000  0.000
       0.000  0.000  0.000  1.000  0.000
       0.000  0.000  0.000  0.000  1.000
     occupation matrix ns (before diag.):
       0.600  0.000  0.000  0.000  0.000
       0.000  0.600  0.000  0.000  0.000
       0.000  0.000  0.600  0.000  0.000
       0.000  0.000  0.000  0.600  0.000
       0.000  0.000  0.000  0.000  0.600
     SPIN  2
     eigenvalues:
       1.000  1.000  1.000  1.000  1.000
     eigenvectors (columns):
       1.000  0.000  0.000  0.000  0.000
       0.000  1.000  0.000  0.000  0.000
       0.000  0.000  1.000  0.000  0.000
       0.000  0.000  0.000  1.000  0.000
       0.000  0.000  0.000  0.000  1.000
     occupation matrix ns (before diag.):
       1.000  0.000  0.000  0.000  0.000
       0.000  1.000  0.000  0.000  0.000
       0.000  0.000  1.000  0.000  0.000
       0.000  0.000  0.000  1.000  0.000
       0.000  0.000  0.000  0.000  1.000
     --------------------- ATOM   56 ----------------------
     Tr[ns] (up, down, total) =   3.00000  5.00000  8.00000
     Atomic magnetic moment =  -2.00000
     SPIN  1
     eigenvalues:
       0.600  0.600  0.600  0.600  0.600
     eigenvectors (columns):
       1.000  0.000  0.000  0.000  0.000
       0.000  1.000  0.000  0.000  0.000
       0.000  0.000  1.000  0.000  0.000
       0.000  0.000  0.000  1.000  0.000
       0.000  0.000  0.000  0.000  1.000
     occupation matrix ns (before diag.):
       0.600  0.000  0.000  0.000  0.000
       0.000  0.600  0.000  0.000  0.000
       0.000  0.000  0.600  0.000  0.000
       0.000  0.000  0.000  0.600  0.000
       0.000  0.000  0.000  0.000  0.600
     SPIN  2
     eigenvalues:
       1.000  1.000  1.000  1.000  1.000
     eigenvectors (columns):
       1.000  0.000  0.000  0.000  0.000
       0.000  1.000  0.000  0.000  0.000
       0.000  0.000  1.000  0.000  0.000
       0.000  0.000  0.000  1.000  0.000
       0.000  0.000  0.000  0.000  1.000
     occupation matrix ns (before diag.):
       1.000  0.000  0.000  0.000  0.000
       0.000  1.000  0.000  0.000  0.000
       0.000  0.000  1.000  0.000  0.000
       0.000  0.000  0.000  1.000  0.000
       0.000  0.000  0.000  0.000  1.000
     --------------------- ATOM   57 ----------------------
     Tr[ns] (up, down, total) =   3.00000  5.00000  8.00000
     Atomic magnetic moment =  -2.00000
     SPIN  1
     eigenvalues:
       0.600  0.600  0.600  0.600  0.600
     eigenvectors (columns):
       1.000  0.000  0.000  0.000  0.000
       0.000  1.000  0.000  0.000  0.000
       0.000  0.000  1.000  0.000  0.000
       0.000  0.000  0.000  1.000  0.000
       0.000  0.000  0.000  0.000  1.000
     occupation matrix ns (before diag.):
       0.600  0.000  0.000  0.000  0.000
       0.000  0.600  0.000  0.000  0.000
       0.000  0.000  0.600  0.000  0.000
       0.000  0.000  0.000  0.600  0.000
       0.000  0.000  0.000  0.000  0.600
     SPIN  2
     eigenvalues:
       1.000  1.000  1.000  1.000  1.000
     eigenvectors (columns):
       1.000  0.000  0.000  0.000  0.000
       0.000  1.000  0.000  0.000  0.000
       0.000  0.000  1.000  0.000  0.000
       0.000  0.000  0.000  1.000  0.000
       0.000  0.000  0.000  0.000  1.000
     occupation matrix ns (before diag.):
       1.000  0.000  0.000  0.000  0.000
       0.000  1.000  0.000  0.000  0.000
       0.000  0.000  1.000  0.000  0.000
       0.000  0.000  0.000  1.000  0.000
       0.000  0.000  0.000  0.000  1.000
     --------------------- ATOM   58 ----------------------
     Tr[ns] (up, down, total) =   3.00000  5.00000  8.00000
     Atomic magnetic moment =  -2.00000
     SPIN  1
     eigenvalues:
       0.600  0.600  0.600  0.600  0.600
     eigenvectors (columns):
       1.000  0.000  0.000  0.000  0.000
       0.000  1.000  0.000  0.000  0.000
       0.000  0.000  1.000  0.000  0.000
       0.000  0.000  0.000  1.000  0.000
       0.000  0.000  0.000  0.000  1.000
     occupation matrix ns (before diag.):
       0.600  0.000  0.000  0.000  0.000
       0.000  0.600  0.000  0.000  0.000
       0.000  0.000  0.600  0.000  0.000
       0.000  0.000  0.000  0.600  0.000
       0.000  0.000  0.000  0.000  0.600
     SPIN  2
     eigenvalues:
       1.000  1.000  1.000  1.000  1.000
     eigenvectors (columns):
       1.000  0.000  0.000  0.000  0.000
       0.000  1.000  0.000  0.000  0.000
       0.000  0.000  1.000  0.000  0.000
       0.000  0.000  0.000  1.000  0.000
       0.000  0.000  0.000  0.000  1.000
     occupation matrix ns (before diag.):
       1.000  0.000  0.000  0.000  0.000
       0.000  1.000  0.000  0.000  0.000
       0.000  0.000  1.000  0.000  0.000
       0.000  0.000  0.000  1.000  0.000
       0.000  0.000  0.000  0.000  1.000
     --------------------- ATOM   59 ----------------------
     Tr[ns] (up, down, total) =   3.00000  5.00000  8.00000
     Atomic magnetic moment =  -2.00000
     SPIN  1
     eigenvalues:
       0.600  0.600  0.600  0.600  0.600
     eigenvectors (columns):
       1.000  0.000  0.000  0.000  0.000
       0.000  1.000  0.000  0.000  0.000
       0.000  0.000  1.000  0.000  0.000
       0.000  0.000  0.000  1.000  0.000
       0.000  0.000  0.000  0.000  1.000
     occupation matrix ns (before diag.):
       0.600  0.000  0.000  0.000  0.000
       0.000  0.600  0.000  0.000  0.000
       0.000  0.000  0.600  0.000  0.000
       0.000  0.000  0.000  0.600  0.000
       0.000  0.000  0.000  0.000  0.600
     SPIN  2
     eigenvalues:
       1.000  1.000  1.000  1.000  1.000
     eigenvectors (columns):
       1.000  0.000  0.000  0.000  0.000
       0.000  1.000  0.000  0.000  0.000
       0.000  0.000  1.000  0.000  0.000
       0.000  0.000  0.000  1.000  0.000
       0.000  0.000  0.000  0.000  1.000
     occupation matrix ns (before diag.):
       1.000  0.000  0.000  0.000  0.000
       0.000  1.000  0.000  0.000  0.000
       0.000  0.000  1.000  0.000  0.000
       0.000  0.000  0.000  1.000  0.000
       0.000  0.000  0.000  0.000  1.000
     --------------------- ATOM   60 ----------------------
     Tr[ns] (up, down, total) =   3.00000  5.00000  8.00000
     Atomic magnetic moment =  -2.00000
     SPIN  1
     eigenvalues:
       0.600  0.600  0.600  0.600  0.600
     eigenvectors (columns):
       1.000  0.000  0.000  0.000  0.000
       0.000  1.000  0.000  0.000  0.000
       0.000  0.000  1.000  0.000  0.000
       0.000  0.000  0.000  1.000  0.000
       0.000  0.000  0.000  0.000  1.000
     occupation matrix ns (before diag.):
       0.600  0.000  0.000  0.000  0.000
       0.000  0.600  0.000  0.000  0.000
       0.000  0.000  0.600  0.000  0.000
       0.000  0.000  0.000  0.600  0.000
       0.000  0.000  0.000  0.000  0.600
     SPIN  2
     eigenvalues:
       1.000  1.000  1.000  1.000  1.000
     eigenvectors (columns):
       1.000  0.000  0.000  0.000  0.000
       0.000  1.000  0.000  0.000  0.000
       0.000  0.000  1.000  0.000  0.000
       0.000  0.000  0.000  1.000  0.000
       0.000  0.000  0.000  0.000  1.000
     occupation matrix ns (before diag.):
       1.000  0.000  0.000  0.000  0.000
       0.000  1.000  0.000  0.000  0.000
       0.000  0.000  1.000  0.000  0.000
       0.000  0.000  0.000  1.000  0.000
       0.000  0.000  0.000  0.000  1.000
     --------------------- ATOM   61 ----------------------
     Tr[ns] (up, down, total) =   3.00000  5.00000  8.00000
     Atomic magnetic moment =  -2.00000
     SPIN  1
     eigenvalues:
       0.600  0.600  0.600  0.600  0.600
     eigenvectors (columns):
       1.000  0.000  0.000  0.000  0.000
       0.000  1.000  0.000  0.000  0.000
       0.000  0.000  1.000  0.000  0.000
       0.000  0.000  0.000  1.000  0.000
       0.000  0.000  0.000  0.000  1.000
     occupation matrix ns (before diag.):
       0.600  0.000  0.000  0.000  0.000
       0.000  0.600  0.000  0.000  0.000
       0.000  0.000  0.600  0.000  0.000
       0.000  0.000  0.000  0.600  0.000
       0.000  0.000  0.000  0.000  0.600
     SPIN  2
     eigenvalues:
       1.000  1.000  1.000  1.000  1.000
     eigenvectors (columns):
       1.000  0.000  0.000  0.000  0.000
       0.000  1.000  0.000  0.000  0.000
       0.000  0.000  1.000  0.000  0.000
       0.000  0.000  0.000  1.000  0.000
       0.000  0.000  0.000  0.000  1.000
     occupation matrix ns (before diag.):
       1.000  0.000  0.000  0.000  0.000
       0.000  1.000  0.000  0.000  0.000
       0.000  0.000  1.000  0.000  0.000
       0.000  0.000  0.000  1.000  0.000
       0.000  0.000  0.000  0.000  1.000
     --------------------- ATOM   62 ----------------------
     Tr[ns] (up, down, total) =   3.00000  5.00000  8.00000
     Atomic magnetic moment =  -2.00000
     SPIN  1
     eigenvalues:
       0.600  0.600  0.600  0.600  0.600
     eigenvectors (columns):
       1.000  0.000  0.000  0.000  0.000
       0.000  1.000  0.000  0.000  0.000
       0.000  0.000  1.000  0.000  0.000
       0.000  0.000  0.000  1.000  0.000
       0.000  0.000  0.000  0.000  1.000
     occupation matrix ns (before diag.):
       0.600  0.000  0.000  0.000  0.000
       0.000  0.600  0.000  0.000  0.000
       0.000  0.000  0.600  0.000  0.000
       0.000  0.000  0.000  0.600  0.000
       0.000  0.000  0.000  0.000  0.600
     SPIN  2
     eigenvalues:
       1.000  1.000  1.000  1.000  1.000
     eigenvectors (columns):
       1.000  0.000  0.000  0.000  0.000
       0.000  1.000  0.000  0.000  0.000
       0.000  0.000  1.000  0.000  0.000
       0.000  0.000  0.000  1.000  0.000
       0.000  0.000  0.000  0.000  1.000
     occupation matrix ns (before diag.):
       1.000  0.000  0.000  0.000  0.000
       0.000  1.000  0.000  0.000  0.000
       0.000  0.000  1.000  0.000  0.000
       0.000  0.000  0.000  1.000  0.000
       0.000  0.000  0.000  0.000  1.000
     --------------------- ATOM   63 ----------------------
     Tr[ns] (up, down, total) =   3.00000  5.00000  8.00000
     Atomic magnetic moment =  -2.00000
     SPIN  1
     eigenvalues:
       0.600  0.600  0.600  0.600  0.600
     eigenvectors (columns):
       1.000  0.000  0.000  0.000  0.000
       0.000  1.000  0.000  0.000  0.000
       0.000  0.000  1.000  0.000  0.000
       0.000  0.000  0.000  1.000  0.000
       0.000  0.000  0.000  0.000  1.000
     occupation matrix ns (before diag.):
       0.600  0.000  0.000  0.000  0.000
       0.000  0.600  0.000  0.000  0.000
       0.000  0.000  0.600  0.000  0.000
       0.000  0.000  0.000  0.600  0.000
       0.000  0.000  0.000  0.000  0.600
     SPIN  2
     eigenvalues:
       1.000  1.000  1.000  1.000  1.000
     eigenvectors (columns):
       1.000  0.000  0.000  0.000  0.000
       0.000  1.000  0.000  0.000  0.000
       0.000  0.000  1.000  0.000  0.000
       0.000  0.000  0.000  1.000  0.000
       0.000  0.000  0.000  0.000  1.000
     occupation matrix ns (before diag.):
       1.000  0.000  0.000  0.000  0.000
       0.000  1.000  0.000  0.000  0.000
       0.000  0.000  1.000  0.000  0.000
       0.000  0.000  0.000  1.000  0.000
       0.000  0.000  0.000  0.000  1.000
     --------------------- ATOM   64 ----------------------
     Tr[ns] (up, down, total) =   3.00000  5.00000  8.00000
     Atomic magnetic moment =  -2.00000
     SPIN  1
     eigenvalues:
       0.600  0.600  0.600  0.600  0.600
     eigenvectors (columns):
       1.000  0.000  0.000  0.000  0.000
       0.000  1.000  0.000  0.000  0.000
       0.000  0.000  1.000  0.000  0.000
       0.000  0.000  0.000  1.000  0.000
       0.000  0.000  0.000  0.000  1.000
     occupation matrix ns (before diag.):
       0.600  0.000  0.000  0.000  0.000
       0.000  0.600  0.000  0.000  0.000
       0.000  0.000  0.600  0.000  0.000
       0.000  0.000  0.000  0.600  0.000
       0.000  0.000  0.000  0.000  0.600
     SPIN  2
     eigenvalues:
       1.000  1.000  1.000  1.000  1.000
     eigenvectors (columns):
       1.000  0.000  0.000  0.000  0.000
       0.000  1.000  0.000  0.000  0.000
       0.000  0.000  1.000  0.000  0.000
       0.000  0.000  0.000  1.000  0.000
       0.000  0.000  0.000  0.000  1.000
     occupation matrix ns (before diag.):
       1.000  0.000  0.000  0.000  0.000
       0.000  1.000  0.000  0.000  0.000
       0.000  0.000  1.000  0.000  0.000
       0.000  0.000  0.000  1.000  0.000
       0.000  0.000  0.000  0.000  1.000

     Number of occupied Hubbard levels =  256.0000
 Atomic wfc used for LDA+U Projector are NOT orthogonalized
     Starting wfcs are  448 randomized atomic wfcs

     total cpu time spent up to now is        6.0 secs

     per-process dynamical memory:   205.6 Mb

     Self-consistent Calculation

     iteration #  1     ecut=   205.94 Ry     beta= 0.25
     Davidson diagonalization with overlap

---- Real-time Memory Report at c_bands before calling an iterative solver
           230 MiB given to the printing process from OS
           200 MiB allocation reported by mallinfo(arena+hblkhd)
        244128 MiB available memory on the node where the printing process lives
------------------
     ethr =  1.00E-02,  avg # of iterations =  8.5

     Hubbard parameters (eV):
     U(  2) =  6.5000
     U(  3) =  6.5000

     ================= HUBBARD OCCUPATIONS ================
     --------------------- ATOM   33 ----------------------
     Tr[ns] (up, down, total) =   4.98864  0.69239  5.68104
     Atomic magnetic moment =   4.29625
     SPIN  1
     eigenvalues:
       0.997  0.997  0.998  0.998  0.998
     eigenvectors (columns):
       0.374  0.917  0.000  0.134 -0.023
      -0.110 -0.015 -0.577  0.519  0.621
       0.068 -0.087 -0.577  0.278 -0.760
       0.917 -0.374 -0.000  0.023  0.134
      -0.042 -0.102  0.577  0.797 -0.139
     occupation matrix ns (before diag.):
       0.997  0.000  0.000 -0.000  0.000
       0.000  0.998 -0.000  0.000  0.000
       0.000 -0.000  0.998 -0.000  0.000
      -0.000  0.000 -0.000  0.997 -0.000
       0.000  0.000  0.000 -0.000  0.998
     SPIN  2
     eigenvalues:
       0.087  0.087  0.152  0.152  0.214
     eigenvectors (columns):
      -0.299  0.954 -0.035 -0.003  0.000
      -0.028  0.006  0.466 -0.670 -0.577
       0.019  0.021  0.347  0.738 -0.577
      -0.954 -0.299 -0.003  0.035 -0.000
      -0.009  0.027  0.813  0.069  0.577
     occupation matrix ns (before diag.):
       0.087 -0.001 -0.001 -0.000 -0.002
      -0.001  0.172  0.021 -0.002 -0.021
      -0.001  0.021  0.172  0.002 -0.021
      -0.000 -0.002  0.002  0.087 -0.000
      -0.002 -0.021 -0.021 -0.000  0.172
     --------------------- ATOM   34 ----------------------
     Tr[ns] (up, down, total) =   4.98865  0.68876  5.67742
     Atomic magnetic moment =   4.29989
     SPIN  1
     eigenvalues:
       0.997  0.997  0.998  0.998  0.998
     eigenvectors (columns):
      -0.858 -0.496  0.002  0.116  0.067
      -0.000  0.107 -0.569  0.000  0.815
       0.094 -0.056 -0.581  0.701 -0.399
       0.496 -0.858  0.004 -0.067  0.116
       0.094  0.056  0.581  0.701  0.399
     occupation matrix ns (before diag.):
       0.997  0.000  0.000  0.000  0.000
       0.000  0.998 -0.000  0.000  0.000
       0.000 -0.000  0.998 -0.000  0.000
       0.000  0.000 -0.000  0.997  0.000
       0.000  0.000  0.000  0.000  0.998
     SPIN  2
     eigenvalues:
       0.087  0.087  0.149  0.152  0.213
     eigenvectors (columns):
      -0.500 -0.866 -0.029  0.018 -0.000
      -0.030 -0.000  0.000 -0.816 -0.578
       0.015 -0.024  0.707  0.408 -0.577
      -0.865  0.500  0.017  0.031 -0.000
      -0.015 -0.024  0.707 -0.408  0.577
     occupation matrix ns (before diag.):
       0.087 -0.001 -0.001 -0.000 -0.002
      -0.001  0.172  0.020 -0.002 -0.020
      -0.001  0.020  0.171  0.002 -0.022
      -0.000 -0.002  0.002  0.087 -0.000
      -0.002 -0.020 -0.022 -0.000  0.171
     --------------------- ATOM   35 ----------------------
     Tr[ns] (up, down, total) =   4.98863  0.69164  5.68028
     Atomic magnetic moment =   4.29699
     SPIN  1
     eigenvalues:
       0.997  0.997  0.998  0.998  0.998
     eigenvectors (columns):
      -0.495 -0.858 -0.001 -0.069  0.116
       0.111  0.000  0.582 -0.806 -0.000
      -0.058  0.095  0.575  0.407  0.701
      -0.858  0.495 -0.002 -0.119 -0.067
       0.058  0.095 -0.575 -0.407  0.701
     occupation matrix ns (before diag.):
       0.997  0.000  0.000 -0.000  0.000
       0.000  0.998 -0.000  0.000  0.000
       0.000 -0.000  0.998 -0.000  0.000
      -0.000  0.000 -0.000  0.997  0.000
       0.000  0.000  0.000  0.000  0.998
     SPIN  2
     eigenvalues:
       0.087  0.087  0.152  0.152  0.213
     eigenvectors (columns):
       0.500  0.865  0.030 -0.019  0.001
       0.031  0.000 -0.000  0.817 -0.576
      -0.014  0.025 -0.707 -0.407 -0.578
       0.865 -0.500 -0.017 -0.032  0.001
       0.014  0.025 -0.707  0.407  0.578
     occupation matrix ns (before diag.):
       0.087 -0.001 -0.001 -0.000 -0.002
      -0.001  0.172  0.020 -0.002 -0.020
      -0.001  0.020  0.172  0.002 -0.021
      -0.000 -0.002  0.002  0.087  0.000
      -0.002 -0.020 -0.021  0.000  0.172
     --------------------- ATOM   36 ----------------------
     Tr[ns] (up, down, total) =   4.98865  0.68876  5.67742
     Atomic magnetic moment =   4.29989
     SPIN  1
     eigenvalues:
       0.997  0.997  0.998  0.998  0.998
     eigenvectors (columns):
       0.858  0.496 -0.002 -0.116  0.067
      -0.094  0.056  0.581 -0.701 -0.399
       0.000 -0.107  0.569 -0.000  0.815
       0.496 -0.858  0.004 -0.067 -0.116
      -0.094 -0.056 -0.581 -0.701  0.399
     occupation matrix ns (before diag.):
       0.997  0.000  0.000 -0.000  0.000
       0.000  0.998 -0.000  0.000  0.000
       0.000 -0.000  0.998 -0.000  0.000
      -0.000  0.000 -0.000  0.997 -0.000
       0.000  0.000  0.000 -0.000  0.998
     SPIN  2
     eigenvalues:
       0.087  0.087  0.149  0.152  0.213
     eigenvectors (columns):
       0.500  0.866  0.029 -0.018 -0.000
      -0.015  0.024 -0.707 -0.408 -0.577
       0.030  0.000 -0.000  0.816 -0.578
      -0.865  0.500  0.017  0.031  0.000
       0.015  0.024 -0.707  0.408  0.577
     occupation matrix ns (before diag.):
       0.087 -0.001 -0.001  0.000 -0.002
      -0.001  0.171  0.020 -0.002 -0.022
      -0.001  0.020  0.172  0.002 -0.020
       0.000 -0.002  0.002  0.087  0.000
      -0.002 -0.022 -0.020  0.000  0.171
     --------------------- ATOM   37 ----------------------
     Tr[ns] (up, down, total) =   4.98864  0.69076  5.67940
     Atomic magnetic moment =   4.29788
     SPIN  1
     eigenvalues:
       0.997  0.997  0.998  0.998  0.998
     eigenvectors (columns):
       0.000  0.991 -0.000  0.136 -0.000
      -0.098 -0.055 -0.582  0.397  0.700
       0.098 -0.055 -0.582  0.397 -0.700
       0.990 -0.000 -0.000  0.000  0.139
      -0.000 -0.112  0.567  0.816 -0.000
     occupation matrix ns (before diag.):
       0.997  0.000  0.000 -0.000  0.000
       0.000  0.998 -0.000  0.000  0.000
       0.000 -0.000  0.998 -0.000  0.000
      -0.000  0.000 -0.000  0.997 -0.000
       0.000  0.000  0.000 -0.000  0.998
     SPIN  2
     eigenvalues:
       0.087  0.087  0.151  0.152  0.213
     eigenvectors (columns):
      -0.000  0.999 -0.036  0.000  0.001
      -0.025  0.015  0.407 -0.707 -0.578
       0.025  0.015  0.407  0.707 -0.578
      -0.999 -0.000 -0.000  0.036 -0.000
      -0.000  0.029  0.817 -0.000  0.576
     occupation matrix ns (before diag.):
       0.087 -0.001 -0.001 -0.000 -0.002
      -0.001  0.172  0.020 -0.002 -0.021
      -0.001  0.020  0.172  0.002 -0.021
      -0.000 -0.002  0.002  0.087 -0.000
      -0.002 -0.021 -0.021 -0.000  0.171
     --------------------- ATOM   38 ----------------------
     Tr[ns] (up, down, total) =   4.98864  0.69076  5.67940
     Atomic magnetic moment =   4.29788
     SPIN  1
     eigenvalues:
       0.997  0.997  0.998  0.998  0.998
     eigenvectors (columns):
      -0.858  0.495  0.000 -0.068  0.120
       0.098  0.055 -0.582  0.397  0.700
      -0.000 -0.112 -0.567 -0.816 -0.000
      -0.495 -0.858 -0.000  0.118  0.069
       0.098 -0.055  0.582 -0.397  0.700
     occupation matrix ns (before diag.):
       0.997  0.000  0.000 -0.000  0.000
       0.000  0.998 -0.000  0.000  0.000
       0.000 -0.000  0.998 -0.000  0.000
      -0.000  0.000 -0.000  0.997  0.000
       0.000  0.000  0.000  0.000  0.998
     SPIN  2
     eigenvalues:
       0.087  0.087  0.151  0.152  0.213
     eigenvectors (columns):
      -0.865  0.500  0.018  0.031 -0.000
      -0.025 -0.015  0.407 -0.707 -0.578
       0.000  0.029 -0.817  0.000 -0.576
      -0.500 -0.865 -0.031  0.018  0.001
      -0.025  0.015 -0.407 -0.707  0.578
     occupation matrix ns (before diag.):
       0.087 -0.001 -0.001 -0.000 -0.002
      -0.001  0.172  0.021 -0.002 -0.020
      -0.001  0.021  0.171  0.002 -0.021
      -0.000 -0.002  0.002  0.087  0.000
      -0.002 -0.020 -0.021  0.000  0.172
     --------------------- ATOM   39 ----------------------
     Tr[ns] (up, down, total) =   4.98863  0.69164  5.68028
     Atomic magnetic moment =   4.29699
     SPIN  1
     eigenvalues:
       0.997  0.997  0.998  0.998  0.998
     eigenvectors (columns):
       0.495  0.858  0.001 -0.069 -0.116
       0.058 -0.095 -0.575  0.407 -0.701
      -0.111 -0.000 -0.582 -0.806  0.000
      -0.858  0.495 -0.002  0.119 -0.067
      -0.058 -0.095  0.575 -0.407 -0.701
     occupation matrix ns (before diag.):
       0.997  0.000  0.000  0.000  0.000
       0.000  0.998 -0.000  0.000  0.000
       0.000 -0.000  0.998 -0.000  0.000
       0.000  0.000 -0.000  0.997 -0.000
       0.000  0.000  0.000 -0.000  0.998
     SPIN  2
     eigenvalues:
       0.087  0.087  0.152  0.152  0.213
     eigenvectors (columns):
       0.500  0.865  0.030 -0.019  0.001
      -0.014  0.025 -0.707 -0.407 -0.578
       0.031  0.000 -0.000  0.817 -0.576
      -0.865  0.500  0.017  0.032 -0.001
       0.014  0.025 -0.707  0.407  0.578
     occupation matrix ns (before diag.):
       0.087 -0.001 -0.001  0.000 -0.002
      -0.001  0.172  0.020 -0.002 -0.021
      -0.001  0.020  0.172  0.002 -0.020
       0.000 -0.002  0.002  0.087 -0.000
      -0.002 -0.021 -0.020 -0.000  0.172
     --------------------- ATOM   40 ----------------------
     Tr[ns] (up, down, total) =   4.98864  0.69076  5.67940
     Atomic magnetic moment =   4.29788
     SPIN  1
     eigenvalues:
       0.997  0.997  0.998  0.998  0.998
     eigenvectors (columns):
      -0.858  0.495  0.000 -0.068  0.120
      -0.000 -0.112 -0.567 -0.816 -0.000
       0.098  0.055 -0.582  0.397  0.700
       0.495  0.858  0.000 -0.118 -0.069
       0.098 -0.055  0.582 -0.397  0.700
     occupation matrix ns (before diag.):
       0.997  0.000  0.000  0.000  0.000
       0.000  0.998 -0.000  0.000  0.000
       0.000 -0.000  0.998 -0.000  0.000
       0.000  0.000 -0.000  0.997 -0.000
       0.000  0.000  0.000 -0.000  0.998
     SPIN  2
     eigenvalues:
       0.087  0.087  0.151  0.152  0.213
     eigenvectors (columns):
       0.865 -0.500 -0.018 -0.031 -0.000
       0.000 -0.029  0.817 -0.000 -0.576
       0.025  0.015 -0.407  0.707 -0.578
      -0.500 -0.865 -0.031  0.018 -0.001
       0.025 -0.015  0.407  0.707  0.578
     occupation matrix ns (before diag.):
       0.087 -0.001 -0.001  0.000 -0.002
      -0.001  0.171  0.021 -0.002 -0.021
      -0.001  0.021  0.172  0.002 -0.020
       0.000 -0.002  0.002  0.087 -0.000
      -0.002 -0.021 -0.020 -0.000  0.172
     --------------------- ATOM   41 ----------------------
     Tr[ns] (up, down, total) =   4.98863  0.69164  5.68028
     Atomic magnetic moment =   4.29699
     SPIN  1
     eigenvalues:
       0.997  0.997  0.998  0.998  0.998
     eigenvectors (columns):
       0.990 -0.000  0.002 -0.138 -0.000
      -0.058 -0.095  0.575 -0.407  0.701
      -0.058  0.095  0.575 -0.407 -0.701
       0.000  0.991  0.000 -0.000  0.134
      -0.111  0.000 -0.582 -0.806 -0.000
     occupation matrix ns (before diag.):
       0.997  0.000  0.000 -0.000  0.000
       0.000  0.998 -0.000  0.000  0.000
       0.000 -0.000  0.998 -0.000  0.000
      -0.000  0.000 -0.000  0.997 -0.000
       0.000  0.000  0.000 -0.000  0.998
     SPIN  2
     eigenvalues:
       0.087  0.087  0.152  0.152  0.213
     eigenvectors (columns):
       0.999  0.000  0.000 -0.037 -0.001
       0.014 -0.025 -0.707  0.407 -0.578
       0.014  0.025  0.707  0.407 -0.578
       0.000 -0.999  0.035  0.000 -0.000
       0.031  0.000 -0.000  0.817  0.576
     occupation matrix ns (before diag.):
       0.087 -0.001 -0.001 -0.000 -0.002
      -0.001  0.172  0.021 -0.002 -0.020
      -0.001  0.021  0.172  0.002 -0.020
      -0.000 -0.002  0.002  0.087 -0.000
      -0.002 -0.020 -0.020 -0.000  0.172
     --------------------- ATOM   42 ----------------------
     Tr[ns] (up, down, total) =   4.98865  0.68876  5.67742
     Atomic magnetic moment =   4.29989
     SPIN  1
     eigenvalues:
       0.997  0.997  0.998  0.998  0.998
     eigenvectors (columns):
      -0.858 -0.496  0.002  0.116  0.067
      -0.000  0.107 -0.569  0.000  0.815
       0.094 -0.056 -0.581  0.701 -0.399
       0.496 -0.858  0.004 -0.067  0.116
       0.094  0.056  0.581  0.701  0.399
     occupation matrix ns (before diag.):
       0.997  0.000  0.000  0.000  0.000
       0.000  0.998 -0.000  0.000  0.000
       0.000 -0.000  0.998 -0.000  0.000
       0.000  0.000 -0.000  0.997  0.000
       0.000  0.000  0.000  0.000  0.998
     SPIN  2
     eigenvalues:
       0.087  0.087  0.149  0.152  0.213
     eigenvectors (columns):
      -0.500 -0.866 -0.029  0.018 -0.000
      -0.030 -0.000  0.000 -0.816 -0.578
       0.015 -0.024  0.707  0.408 -0.577
      -0.865  0.500  0.017  0.031 -0.000
      -0.015 -0.024  0.707 -0.408  0.577
     occupation matrix ns (before diag.):
       0.087 -0.001 -0.001 -0.000 -0.002
      -0.001  0.172  0.020 -0.002 -0.020
      -0.001  0.020  0.171  0.002 -0.022
      -0.000 -0.002  0.002  0.087 -0.000
      -0.002 -0.020 -0.022 -0.000  0.171
     --------------------- ATOM   43 ----------------------
     Tr[ns] (up, down, total) =   4.98865  0.68876  5.67742
     Atomic magnetic moment =   4.29989
     SPIN  1
     eigenvalues:
       0.997  0.997  0.998  0.998  0.998
     eigenvectors (columns):
       0.000  0.991  0.004 -0.000 -0.134
      -0.094 -0.056  0.581 -0.701 -0.399
       0.094 -0.056  0.581  0.701 -0.399
       0.991 -0.000  0.000 -0.133  0.000
       0.000 -0.107 -0.569 -0.000 -0.815
     occupation matrix ns (before diag.):
       0.997  0.000  0.000 -0.000  0.000
       0.000  0.998 -0.000  0.000  0.000
       0.000 -0.000  0.998 -0.000  0.000
      -0.000  0.000 -0.000  0.997 -0.000
       0.000  0.000  0.000 -0.000  0.998
     SPIN  2
     eigenvalues:
       0.087  0.087  0.149  0.152  0.213
     eigenvectors (columns):
       0.999  0.000  0.000 -0.036  0.000
       0.015 -0.024 -0.707  0.408 -0.577
       0.015  0.024  0.707  0.408 -0.577
       0.000 -0.999  0.034 -0.000 -0.000
       0.030  0.000 -0.000  0.816  0.578
     occupation matrix ns (before diag.):
       0.087 -0.001 -0.001 -0.000 -0.002
      -0.001  0.171  0.022 -0.001 -0.020
      -0.001  0.022  0.171  0.001 -0.020
      -0.000 -0.001  0.001  0.087 -0.000
      -0.002 -0.020 -0.020 -0.000  0.172
     --------------------- ATOM   44 ----------------------
     Tr[ns] (up, down, total) =   4.98865  0.68876  5.67742
     Atomic magnetic moment =   4.29989
     SPIN  1
     eigenvalues:
       0.997  0.997  0.998  0.998  0.998
     eigenvectors (columns):
       0.858  0.496 -0.002 -0.116  0.067
      -0.094  0.056  0.581 -0.701 -0.399
       0.000 -0.107  0.569 -0.000  0.815
       0.496 -0.858  0.004 -0.067 -0.116
      -0.094 -0.056 -0.581 -0.701  0.399
     occupation matrix ns (before diag.):
       0.997  0.000  0.000 -0.000  0.000
       0.000  0.998 -0.000  0.000  0.000
       0.000 -0.000  0.998 -0.000  0.000
      -0.000  0.000 -0.000  0.997 -0.000
       0.000  0.000  0.000 -0.000  0.998
     SPIN  2
     eigenvalues:
       0.087  0.087  0.149  0.152  0.213
     eigenvectors (columns):
       0.500  0.866  0.029 -0.018 -0.000
      -0.015  0.024 -0.707 -0.408 -0.577
       0.030  0.000  0.000  0.816 -0.578
      -0.865  0.500  0.017  0.031  0.000
       0.015  0.024 -0.707  0.408  0.577
     occupation matrix ns (before diag.):
       0.087 -0.001 -0.001  0.000 -0.002
      -0.001  0.171  0.020 -0.002 -0.022
      -0.001  0.020  0.172  0.002 -0.020
       0.000 -0.002  0.002  0.087  0.000
[...]
     atom   41 type  2   force =    -0.00000103   -0.00000703    0.00000707
     atom   42 type  2   force =    -0.00000010    0.00001191    0.00000029
     atom   43 type  2   force =     0.00000292   -0.00001117    0.00000375
     atom   44 type  2   force =     0.00000869    0.00000543    0.00000235
     atom   45 type  2   force =    -0.00000366    0.00001177    0.00000529
     atom   46 type  2   force =     0.00000431   -0.00001168   -0.00000105
     atom   47 type  2   force =    -0.00000814    0.00001709   -0.00000452
     atom   48 type  2   force =     0.00000144    0.00001057   -0.00000455
     atom   49 type  3   force =    -0.00000282   -0.00001274    0.00000311
     atom   50 type  3   force =     0.00000810    0.00000632    0.00000038
     atom   51 type  3   force =     0.00000122    0.00000219    0.00000581
     atom   52 type  3   force =    -0.00000321    0.00000502   -0.00000069
     atom   53 type  3   force =    -0.00000036   -0.00000498    0.00000263
     atom   54 type  3   force =     0.00000057   -0.00000567    0.00000667
     atom   55 type  3   force =    -0.00000022   -0.00001601   -0.00000571
     atom   56 type  3   force =     0.00000018   -0.00000793   -0.00000301
     atom   57 type  3   force =    -0.00000455   -0.00000202   -0.00000801
     atom   58 type  3   force =    -0.00000590   -0.00000701   -0.00000659
     atom   59 type  3   force =     0.00000480   -0.00001226    0.00000235
     atom   60 type  3   force =    -0.00000006    0.00001018   -0.00000186
     atom   61 type  3   force =    -0.00000879    0.00001007    0.00000498
     atom   62 type  3   force =     0.00000357    0.00001131    0.00000377
     atom   63 type  3   force =    -0.00000077    0.00001131   -0.00000059
     atom   64 type  3   force =     0.00000931    0.00001204   -0.00000257
     The core correction contribution to forces
     atom    1 type  1   force =     0.00000005    0.00000001    0.00000004
     atom    2 type  1   force =    -0.00000001   -0.00000009   -0.00000011
     atom    3 type  1   force =    -0.00000012   -0.00000016   -0.00000005
     atom    4 type  1   force =    -0.00000012   -0.00000011   -0.00000010
     atom    5 type  1   force =    -0.00000014   -0.00000014   -0.00000009
     atom    6 type  1   force =    -0.00000011   -0.00000015   -0.00000014
     atom    7 type  1   force =    -0.00000015   -0.00000010   -0.00000010
     atom    8 type  1   force =    -0.00000011   -0.00000010   -0.00000013
     atom    9 type  1   force =     0.00000015    0.00000021    0.00000017
     atom   10 type  1   force =    -0.00000010   -0.00000011   -0.00000008
     atom   11 type  1   force =    -0.00000015   -0.00000010   -0.00000010
     atom   12 type  1   force =     0.00000025    0.00000027    0.00000014
     atom   13 type  1   force =    -0.00000012   -0.00000010   -0.00000008
     atom   14 type  1   force =     0.00000018    0.00000017    0.00000026
     atom   15 type  1   force =    -0.00000015   -0.00000010   -0.00000010
     atom   16 type  1   force =    -0.00000010   -0.00000007   -0.00000010
     atom   17 type  1   force =     0.00000015    0.00000012    0.00000011
     atom   18 type  1   force =     0.00000013    0.00000013    0.00000006
     atom   19 type  1   force =     0.00000014    0.00000009    0.00000013
     atom   20 type  1   force =    -0.00000015   -0.00000026   -0.00000026
     atom   21 type  1   force =     0.00000006    0.00000009    0.00000008
     atom   22 type  1   force =    -0.00000027   -0.00000016   -0.00000017
     atom   23 type  1   force =     0.00000015    0.00000009    0.00000006
     atom   24 type  1   force =     0.00000008    0.00000004    0.00000009
     atom   25 type  1   force =     0.00000009    0.00000010    0.00000016
     atom   26 type  1   force =    -0.00000017   -0.00000023   -0.00000011
     atom   27 type  1   force =     0.00000008    0.00000014    0.00000014
     atom   28 type  1   force =    -0.00000002    0.00000018    0.00000009
     atom   29 type  1   force =     0.00000010    0.00000017    0.00000009
     atom   30 type  1   force =     0.00000017    0.00000006    0.00000010
     atom   31 type  1   force =     0.00000017    0.00000013    0.00000008
     atom   32 type  1   force =    -0.00000005   -0.00000001   -0.00000005
     atom   33 type  2   force =     0.00000009    0.00000010    0.00000002
     atom   34 type  2   force =    -0.00000000    0.00000008   -0.00000001
     atom   35 type  2   force =    -0.00000010    0.00000008    0.00000001
     atom   36 type  2   force =     0.00000007   -0.00000014   -0.00000001
     atom   37 type  2   force =    -0.00000004   -0.00000016    0.00000003
     atom   38 type  2   force =    -0.00000001   -0.00000014   -0.00000001
     atom   39 type  2   force =     0.00000008   -0.00000008   -0.00000004
     atom   40 type  2   force =    -0.00000004   -0.00000004    0.00000000
     atom   41 type  2   force =    -0.00000009   -0.00000012    0.00000003
     atom   42 type  2   force =     0.00000003    0.00000013    0.00000001
     atom   43 type  2   force =     0.00000000   -0.00000012    0.00000004
     atom   44 type  2   force =     0.00000010    0.00000012    0.00000004
     atom   45 type  2   force =    -0.00000002    0.00000014    0.00000004
     atom   46 type  2   force =     0.00000002   -0.00000017    0.00000000
     atom   47 type  2   force =    -0.00000017    0.00000015    0.00000000
     atom   48 type  2   force =     0.00000005    0.00000014   -0.00000011
     atom   49 type  3   force =    -0.00000000   -0.00000013   -0.00000005
     atom   50 type  3   force =     0.00000008    0.00000007    0.00000001
     atom   51 type  3   force =    -0.00000001    0.00000004    0.00000000
     atom   52 type  3   force =    -0.00000012    0.00000010   -0.00000002
     atom   53 type  3   force =    -0.00000000   -0.00000010    0.00000002
     atom   54 type  3   force =     0.00000006   -0.00000010    0.00000004
     atom   55 type  3   force =    -0.00000009   -0.00000014    0.00000001
     atom   56 type  3   force =     0.00000004   -0.00000010   -0.00000004
     atom   57 type  3   force =    -0.00000005   -0.00000009   -0.00000002
     atom   58 type  3   force =    -0.00000006   -0.00000010   -0.00000004
     atom   59 type  3   force =     0.00000006   -0.00000014    0.00000002
     atom   60 type  3   force =    -0.00000004    0.00000015    0.00000003
     atom   61 type  3   force =    -0.00000008    0.00000011    0.00000000
     atom   62 type  3   force =     0.00000003    0.00000011    0.00000009
     atom   63 type  3   force =     0.00000002    0.00000016   -0.00000003
     atom   64 type  3   force =     0.00000017    0.00000013   -0.00000004
     The Hubbard contrib.    to forces
     atom    1 type  1   force =     0.00000000    0.00000000    0.00000000
     atom    2 type  1   force =     0.00000000    0.00000000    0.00000000
     atom    3 type  1   force =     0.00000000    0.00000000    0.00000000
     atom    4 type  1   force =     0.00000000    0.00000000    0.00000000
     atom    5 type  1   force =     0.00000000    0.00000000    0.00000000
     atom    6 type  1   force =     0.00000000    0.00000000    0.00000000
     atom    7 type  1   force =     0.00000000    0.00000000    0.00000000
     atom    8 type  1   force =     0.00000000    0.00000000    0.00000000
     atom    9 type  1   force =     0.00000000    0.00000000    0.00000000
     atom   10 type  1   force =     0.00000000    0.00000000    0.00000000
     atom   11 type  1   force =     0.00000000    0.00000000    0.00000000
     atom   12 type  1   force =     0.00000000    0.00000000    0.00000000
     atom   13 type  1   force =     0.00000000    0.00000000    0.00000000
     atom   14 type  1   force =     0.00000000    0.00000000    0.00000000
     atom   15 type  1   force =     0.00000000    0.00000000    0.00000000
     atom   16 type  1   force =     0.00000000    0.00000000    0.00000000
     atom   17 type  1   force =     0.00000000    0.00000000    0.00000000
     atom   18 type  1   force =     0.00000000    0.00000000    0.00000000
     atom   19 type  1   force =     0.00000000    0.00000000    0.00000000
     atom   20 type  1   force =     0.00000000    0.00000000    0.00000000
     atom   21 type  1   force =     0.00000000    0.00000000    0.00000000
     atom   22 type  1   force =     0.00000000    0.00000000    0.00000000
     atom   23 type  1   force =     0.00000000    0.00000000    0.00000000
     atom   24 type  1   force =     0.00000000    0.00000000    0.00000000
     atom   25 type  1   force =     0.00000000    0.00000000    0.00000000
     atom   26 type  1   force =     0.00000000    0.00000000    0.00000000
     atom   27 type  1   force =     0.00000000    0.00000000    0.00000000
     atom   28 type  1   force =     0.00000000    0.00000000    0.00000000
     atom   29 type  1   force =     0.00000000    0.00000000    0.00000000
     atom   30 type  1   force =     0.00000000    0.00000000    0.00000000
     atom   31 type  1   force =     0.00000000    0.00000000    0.00000000
     atom   32 type  1   force =     0.00000000    0.00000000    0.00000000
     atom   33 type  2   force =     0.00000000   -0.00000000   -0.00000000
     atom   34 type  2   force =    -0.00000008   -0.00000000    0.00000008
     atom   35 type  2   force =     0.00000000    0.00000000   -0.00000000
     atom   36 type  2   force =    -0.00000000   -0.00000008    0.00000008
     atom   37 type  2   force =    -0.00000007   -0.00000007   -0.00000006
     atom   38 type  2   force =    -0.00000006   -0.00000007   -0.00000007
     atom   39 type  2   force =     0.00000000   -0.00000000    0.00000000
     atom   40 type  2   force =    -0.00000007   -0.00000006   -0.00000007
     atom   41 type  2   force =     0.00000000    0.00000000    0.00000000
     atom   42 type  2   force =     0.00000008    0.00000000   -0.00000008
     atom   43 type  2   force =     0.00000008   -0.00000008    0.00000000
     atom   44 type  2   force =    -0.00000000    0.00000008   -0.00000008
     atom   45 type  2   force =    -0.00000008    0.00000008    0.00000000
     atom   46 type  2   force =     0.00000007    0.00000006    0.00000007
     atom   47 type  2   force =     0.00000006    0.00000007    0.00000007
     atom   48 type  2   force =     0.00000007    0.00000007    0.00000006
     atom   49 type  3   force =    -0.00000014   -0.00000014    0.00000011
     atom   50 type  3   force =     0.00000000   -0.00000000   -0.00000000
     atom   51 type  3   force =    -0.00000014    0.00000011   -0.00000014
     atom   52 type  3   force =     0.00000000    0.00000000    0.00000000
     atom   53 type  3   force =     0.00000011   -0.00000014   -0.00000014
     atom   54 type  3   force =    -0.00000000    0.00000000   -0.00000000
     atom   55 type  3   force =     0.00000000   -0.00000010    0.00000010
     atom   56 type  3   force =     0.00000010   -0.00000010   -0.00000000
     atom   57 type  3   force =    -0.00000010   -0.00000000    0.00000010
     atom   58 type  3   force =     0.00000000    0.00000000   -0.00000000
     atom   59 type  3   force =     0.00000010    0.00000000   -0.00000010
     atom   60 type  3   force =    -0.00000010    0.00000010    0.00000000
     atom   61 type  3   force =     0.00000000    0.00000010   -0.00000010
     atom   62 type  3   force =     0.00000014    0.00000014   -0.00000011
     atom   63 type  3   force =     0.00000014   -0.00000011    0.00000014
     atom   64 type  3   force =    -0.00000011    0.00000014    0.00000014
     The SCF correction term to forces
     atom    1 type  1   force =     0.00000426    0.00000726    0.00000174
     atom    2 type  1   force =     0.00000617    0.00000112    0.00000426
     atom    3 type  1   force =     0.00000463    0.00000497    0.00000849
     atom    4 type  1   force =     0.00000760   -0.00000012    0.00000357
     atom    5 type  1   force =     0.00000422    0.00000854    0.00000482
     atom    6 type  1   force =     0.00000337    0.00001078    0.00000066
     atom    7 type  1   force =     0.00000397    0.00000523    0.00000481
     atom    8 type  1   force =     0.00000680    0.00000381    0.00000149
     atom    9 type  1   force =     0.00000255    0.00000883    0.00000630
     atom   10 type  1   force =     0.00000496    0.00000444    0.00000534
     atom   11 type  1   force =     0.00000593    0.00000730    0.00000663
     atom   12 type  1   force =     0.00000417    0.00000358    0.00000839
     atom   13 type  1   force =     0.00000797    0.00000041    0.00000404
     atom   14 type  1   force =     0.00000231    0.00000531    0.00000439
     atom   15 type  1   force =     0.00000537    0.00000321    0.00000580
     atom   16 type  1   force =     0.00000403    0.00000030    0.00000115
     atom   17 type  1   force =    -0.00000795   -0.00000578   -0.00000396
     atom   18 type  1   force =    -0.00000563   -0.00000491   -0.00000861
     atom   19 type  1   force =    -0.00000401   -0.00000101   -0.00000550
     atom   20 type  1   force =    -0.00000310   -0.00000355   -0.00000190
     atom   21 type  1   force =    -0.00000398   -0.00000037   -0.00000049
     atom   22 type  1   force =    -0.00000400   -0.00000566   -0.00000619
     atom   23 type  1   force =    -0.00000587   -0.00000471   -0.00000136
     atom   24 type  1   force =    -0.00000394    0.00000042   -0.00000548
     atom   25 type  1   force =    -0.00000633   -0.00000313   -0.00000641
     atom   26 type  1   force =    -0.00000285   -0.00000705   -0.00000895
     atom   27 type  1   force =    -0.00000379   -0.00001059   -0.00000388
     atom   28 type  1   force =    -0.00000572   -0.00000454   -0.00000358
     atom   29 type  1   force =    -0.00000373   -0.00000754   -0.00000553
     atom   30 type  1   force =    -0.00000505   -0.00000020   -0.00000463
     atom   31 type  1   force =    -0.00000779   -0.00000809   -0.00000132
     atom   32 type  1   force =    -0.00000349   -0.00000808   -0.00000419
     atom   33 type  2   force =    -0.00000041   -0.00000857   -0.00000238
     atom   34 type  2   force =    -0.00000070   -0.00000399    0.00000828
     atom   35 type  2   force =     0.00001023   -0.00001030    0.00000077
     atom   36 type  2   force =     0.00000219    0.00001695    0.00000397
     atom   37 type  2   force =     0.00000136    0.00001559    0.00000976
     atom   38 type  2   force =     0.00000188    0.00001632   -0.00000776
     atom   39 type  2   force =    -0.00000999    0.00001017    0.00001075
     atom   40 type  2   force =     0.00000768    0.00000673   -0.00001133
     atom   41 type  2   force =     0.00000162    0.00001060   -0.00001053
     atom   42 type  2   force =    -0.00000033   -0.00001745    0.00000050
     atom   43 type  2   force =    -0.00000477    0.00001704   -0.00000550
     atom   44 type  2   force =    -0.00001257   -0.00000823   -0.00000283
     atom   45 type  2   force =     0.00000605   -0.00001791   -0.00000747
     atom   46 type  2   force =    -0.00000676    0.00001516    0.00000127
     atom   47 type  2   force =     0.00000993   -0.00002553    0.00000635
     atom   48 type  2   force =    -0.00000245   -0.00001562    0.00000453
     atom   49 type  3   force =     0.00000513    0.00001956   -0.00000626
     atom   50 type  3   force =    -0.00001204   -0.00000947   -0.00000075
     atom   51 type  3   force =    -0.00000077   -0.00000557   -0.00000747
     atom   52 type  3   force =     0.00000451   -0.00000756    0.00000119
     atom   53 type  3   force =    -0.00000158    0.00000801   -0.00000286
     atom   54 type  3   force =    -0.00000093    0.00000844   -0.00000972
     atom   55 type  3   force =     0.00000065    0.00002422    0.00000773
     atom   56 type  3   force =    -0.00000091    0.00001197    0.00000447
     atom   57 type  3   force =     0.00000727    0.00000322    0.00001146
     atom   58 type  3   force =     0.00000903    0.00001038    0.00000955
     atom   59 type  3   force =    -0.00000770    0.00001807   -0.00000280
     atom   60 type  3   force =     0.00000072   -0.00001503    0.00000256
     atom   61 type  3   force =     0.00001277   -0.00001524   -0.00000673
     atom   62 type  3   force =    -0.00000626   -0.00001783   -0.00000370
     atom   63 type  3   force =     0.00000024   -0.00001469   -0.00000065
     atom   64 type  3   force =    -0.00001182   -0.00001852    0.00000271

     Total force =     0.000008     Total SCF correction =     0.000109
     SCF correction compared to forces is large: reduce conv_thr to get better values

     Writing all to output data dir ./out/NiO-cubic.save/

     init_run     :      5.52s CPU      5.84s WALL (       1 calls)
     electrons    :    325.28s CPU    334.20s WALL (       1 calls)
     forces       :     12.87s CPU     13.03s WALL (       1 calls)

     Called by init_run:
     wfcinit      :      4.18s CPU      4.42s WALL (       1 calls)
     wfcinit:atom :      0.02s CPU      0.03s WALL (       2 calls)
     wfcinit:wfcr :      3.51s CPU      3.61s WALL (       2 calls)
     potinit      :      0.32s CPU      0.38s WALL (       1 calls)
     hinit0       :      0.80s CPU      0.82s WALL (       1 calls)

     Called by electrons:
     c_bands      :    296.84s CPU    305.07s WALL (      28 calls)
     sum_band     :     23.01s CPU     23.08s WALL (      28 calls)
     v_of_rho     :      4.04s CPU      4.09s WALL (      29 calls)
     v_h          :      0.16s CPU      0.17s WALL (      29 calls)
     v_xc         :      4.01s CPU      4.04s WALL (      30 calls)
     mix_rho      :      1.10s CPU      1.14s WALL (      28 calls)

     Called by c_bands:
     init_us_2    :      3.94s CPU      4.00s WALL (     120 calls)
     init_us_2:cp :      3.94s CPU      4.00s WALL (     120 calls)
     regterg      :    288.35s CPU    296.37s WALL (      56 calls)

     Called by sum_band:
     sum_band:wei :      0.00s CPU      0.00s WALL (      28 calls)
     sum_band:loo :     19.40s CPU     19.46s WALL (      28 calls)
     sum_band:buf :      1.03s CPU      1.03s WALL (      56 calls)
     sum_band:ini :      1.86s CPU      1.87s WALL (      56 calls)

     Called by *egterg:
     rdiaghg      :     40.86s CPU     40.90s WALL (     221 calls)
     regterg:over :     23.05s CPU     23.11s WALL (     165 calls)
     regterg:upda :     13.96s CPU     13.98s WALL (     165 calls)
     regterg:last :     25.69s CPU     25.78s WALL (     106 calls)
     h_psi        :    173.83s CPU    174.30s WALL (     223 calls)
     g_psi        :      0.61s CPU      0.62s WALL (     165 calls)

     Called by h_psi:
     h_psi:calbec :     24.57s CPU     24.60s WALL (     223 calls)
     vloc_psi     :     73.63s CPU     73.87s WALL (     223 calls)
     add_vuspsi   :     22.30s CPU     22.33s WALL (     223 calls)
     vhpsi        :     51.03s CPU     51.16s WALL (     223 calls)

     General routines
     calbec       :     40.87s CPU     40.97s WALL (    2052 calls)
     fft          :      1.95s CPU      1.97s WALL (     445 calls)
     ffts         :      0.19s CPU      0.19s WALL (      56 calls)
     fftw         :     82.73s CPU     82.98s WALL (   70030 calls)
     davcio       :      0.00s CPU      0.02s WALL (       2 calls)

     Parallel routines

     Hubbard U routines
     new_ns       :      3.14s CPU      3.15s WALL (      28 calls)
     vhpsi        :     51.03s CPU     51.16s WALL (     223 calls)
     force_hub    :     10.49s CPU     10.56s WALL (       1 calls)

     PWSCF        :   5m44.70s CPU   5m54.96s WALL


   This run was terminated on:  15:59:48  17Oct2022            

=------------------------------------------------------------------------------=
   JOB DONE.
=------------------------------------------------------------------------------=
