--------------------------------------------------------------------------
[[29434,1],4]: A high-performance Open MPI point-to-point messaging module
was unable to find any relevant network interfaces:

Module: OpenFabrics (openib)
  Host: muzuan

Another transport will be used instead, although this may result in
lower performance.

NOTE: You can disable this warning by setting the MCA parameter
btl_base_warn_component_unused to 0.
--------------------------------------------------------------------------

     Program PWSCF v.7.1 starts on 26Feb2023 at 17:37:42 
        Git branch: develop
        Last git commit: 6eaef358375f923a38805e5c8560088df1e9ab57-dirty
        Last git commit date: Tue Jan 10 16:04:56 2023 +0000
        Last git commit subject: Merge branch 'problematic-test' into 'develop'

     This program is part of the open-source Quantum ESPRESSO suite
     for quantum simulation of materials; please cite
         "P. Giannozzi et al., J. Phys.:Condens. Matter 21 395502 (2009);
         "P. Giannozzi et al., J. Phys.:Condens. Matter 29 465901 (2017);
         "P. Giannozzi et al., J. Chem. Phys. 152 154105 (2020);
          URL http://www.quantum-espresso.org", 
     in publications or presentations arising from this work. More details at
     http://www.quantum-espresso.org/quote

     Parallel version (MPI), running on    24 processors

     MPI processes distributed on     1 nodes
     238835 MiB available memory on the printing compute node when the environment starts

     Waiting for input...
     Reading input from standard input

     Current dimensions of program PWSCF are:
     Max number of different atomic species (ntypx) = 10
     Max number of k-points (npk) =  40000
     Max angular momentum in pseudopotentials (lmaxx) =  4

     IMPORTANT: XC functional enforced from input :
     Exchange-correlation= PBE
                           (   1   4   3   4   0   0   0)
     Any further DFT definition will be discarded
     Please, verify this is what you really want


     gamma-point specific algorithms are used

     R & G space division:  proc/nbgrp/npool/nimage =      24
     Subspace diagonalization in iterative solution of the eigenvalue problem:
     a serial algorithm will be used


     Parallelization info
     --------------------
     sticks:   dense  smooth     PW     G-vecs:    dense   smooth      PW
     Min         534     534    132                45742    45742    5704
     Max         536     536    134                45752    45752    5714
     Sum       12849   12849   3205              1097911  1097911  137059

     Using Slab Decomposition



     bravais-lattice index     =            8
     lattice parameter (alat)  =      15.7622  a.u.
     unit-cell volume          =    3916.0705 (a.u.)^3
     number of atoms/cell      =            1
     number of atomic types    =            1
     number of electrons       =        18.00
     number of Kohn-Sham states=           15
     kinetic-energy cutoff     =     162.7140  Ry
     charge density cutoff     =     650.8560  Ry
     scf convergence threshold =      1.0E-08
     mixing beta               =       0.2500
     number of iterations used =            8  plain     mixing
     Exchange-correlation= PBE
                           (   1   4   3   4   0   0   0)

     celldm(1)=  15.762200  celldm(2)=   1.000000  celldm(3)=   1.000000
     celldm(4)=   0.000000  celldm(5)=   0.000000  celldm(6)=   0.000000

     crystal axes: (cart. coord. in units of alat)
               a(1) = (   1.000000   0.000000   0.000000 )  
               a(2) = (   0.000000   1.000000   0.000000 )  
               a(3) = (   0.000000   0.000000   1.000000 )  

     reciprocal axes: (cart. coord. in units 2 pi/alat)
               b(1) = (  1.000000  0.000000  0.000000 )  
               b(2) = (  0.000000  1.000000  0.000000 )  
               b(3) = (  0.000000  0.000000  1.000000 )  


     PseudoPot. # 1 for Ni read from file:
     ../QE/Ni.upf
     MD5 check sum: ff72d48937b3d9f5815e777d24fa1439
     Pseudo is Norm-conserving + core correction, Zval = 18.0
     Generated using ONCVPSP code by D. R. Hamann
     Using radial grid of 1372 points,  6 beta functions with: 
                l(1) =   0
                l(2) =   0
                l(3) =   1
                l(4) =   1
                l(5) =   2
                l(6) =   2

     atomic species   valence    mass     pseudopotential
        Ni            18.00     1.00000     Ni( 1.00)

     Starting magnetic structure 
     atomic species   magnetization
        Ni           1.000

     48 Sym. Ops., with inversion, found


                                    s                        frac. trans.

      isym =  1     identity                                     

 cryst.   s( 1) = (     1          0          0      )
                  (     0          1          0      )
                  (     0          0          1      )

 cart.    s( 1) = (  1.0000000  0.0000000  0.0000000 )
                  (  0.0000000  1.0000000  0.0000000 )
                  (  0.0000000  0.0000000  1.0000000 )


      isym =  2     180 deg rotation - cart. axis [0,0,1]        

 cryst.   s( 2) = (    -1          0          0      )
                  (     0         -1          0      )
                  (     0          0          1      )

 cart.    s( 2) = ( -1.0000000  0.0000000  0.0000000 )
                  (  0.0000000 -1.0000000  0.0000000 )
                  (  0.0000000  0.0000000  1.0000000 )


      isym =  3     180 deg rotation - cart. axis [0,1,0]        

 cryst.   s( 3) = (    -1          0          0      )
                  (     0          1          0      )
                  (     0          0         -1      )

 cart.    s( 3) = ( -1.0000000  0.0000000  0.0000000 )
                  (  0.0000000  1.0000000  0.0000000 )
                  (  0.0000000  0.0000000 -1.0000000 )


      isym =  4     180 deg rotation - cart. axis [1,0,0]        

 cryst.   s( 4) = (     1          0          0      )
                  (     0         -1          0      )
                  (     0          0         -1      )

 cart.    s( 4) = (  1.0000000  0.0000000  0.0000000 )
                  (  0.0000000 -1.0000000  0.0000000 )
                  (  0.0000000  0.0000000 -1.0000000 )


      isym =  5     180 deg rotation - cart. axis [1,1,0]        

 cryst.   s( 5) = (     0          1          0      )
                  (     1          0          0      )
                  (     0          0         -1      )

 cart.    s( 5) = (  0.0000000  1.0000000  0.0000000 )
                  (  1.0000000  0.0000000  0.0000000 )
                  (  0.0000000  0.0000000 -1.0000000 )


      isym =  6     180 deg rotation - cart. axis [1,-1,0]       

 cryst.   s( 6) = (     0         -1          0      )
                  (    -1          0          0      )
                  (     0          0         -1      )

 cart.    s( 6) = (  0.0000000 -1.0000000  0.0000000 )
                  ( -1.0000000  0.0000000  0.0000000 )
                  (  0.0000000  0.0000000 -1.0000000 )


      isym =  7      90 deg rotation - cart. axis [0,0,-1]       

 cryst.   s( 7) = (     0         -1          0      )
                  (     1          0          0      )
                  (     0          0          1      )

 cart.    s( 7) = (  0.0000000  1.0000000  0.0000000 )
                  ( -1.0000000  0.0000000  0.0000000 )
                  (  0.0000000  0.0000000  1.0000000 )


      isym =  8      90 deg rotation - cart. axis [0,0,1]        

 cryst.   s( 8) = (     0          1          0      )
                  (    -1          0          0      )
                  (     0          0          1      )

 cart.    s( 8) = (  0.0000000 -1.0000000  0.0000000 )
                  (  1.0000000  0.0000000  0.0000000 )
                  (  0.0000000  0.0000000  1.0000000 )


      isym =  9     180 deg rotation - cart. axis [1,0,1]        

 cryst.   s( 9) = (     0          0          1      )
                  (     0         -1          0      )
                  (     1          0          0      )

 cart.    s( 9) = (  0.0000000  0.0000000  1.0000000 )
                  (  0.0000000 -1.0000000  0.0000000 )
                  (  1.0000000  0.0000000  0.0000000 )


      isym = 10     180 deg rotation - cart. axis [-1,0,1]       

 cryst.   s(10) = (     0          0         -1      )
                  (     0         -1          0      )
                  (    -1          0          0      )

 cart.    s(10) = (  0.0000000  0.0000000 -1.0000000 )
                  (  0.0000000 -1.0000000  0.0000000 )
                  ( -1.0000000  0.0000000  0.0000000 )


      isym = 11      90 deg rotation - cart. axis [0,1,0]        

 cryst.   s(11) = (     0          0         -1      )
                  (     0          1          0      )
                  (     1          0          0      )

 cart.    s(11) = (  0.0000000  0.0000000  1.0000000 )
                  (  0.0000000  1.0000000  0.0000000 )
                  ( -1.0000000  0.0000000  0.0000000 )


      isym = 12      90 deg rotation - cart. axis [0,-1,0]       

 cryst.   s(12) = (     0          0          1      )
                  (     0          1          0      )
                  (    -1          0          0      )

 cart.    s(12) = (  0.0000000  0.0000000 -1.0000000 )
                  (  0.0000000  1.0000000  0.0000000 )
                  (  1.0000000  0.0000000  0.0000000 )


      isym = 13     180 deg rotation - cart. axis [0,1,1]        

 cryst.   s(13) = (    -1          0          0      )
                  (     0          0          1      )
                  (     0          1          0      )

 cart.    s(13) = ( -1.0000000  0.0000000  0.0000000 )
                  (  0.0000000  0.0000000  1.0000000 )
                  (  0.0000000  1.0000000  0.0000000 )


      isym = 14     180 deg rotation - cart. axis [0,1,-1]       

 cryst.   s(14) = (    -1          0          0      )
                  (     0          0         -1      )
                  (     0         -1          0      )

 cart.    s(14) = ( -1.0000000  0.0000000  0.0000000 )
                  (  0.0000000  0.0000000 -1.0000000 )
                  (  0.0000000 -1.0000000  0.0000000 )


      isym = 15      90 deg rotation - cart. axis [-1,0,0]       

 cryst.   s(15) = (     1          0          0      )
                  (     0          0         -1      )
                  (     0          1          0      )

 cart.    s(15) = (  1.0000000  0.0000000  0.0000000 )
                  (  0.0000000  0.0000000  1.0000000 )
                  (  0.0000000 -1.0000000  0.0000000 )


      isym = 16      90 deg rotation - cart. axis [1,0,0]        

 cryst.   s(16) = (     1          0          0      )
                  (     0          0          1      )
                  (     0         -1          0      )

 cart.    s(16) = (  1.0000000  0.0000000  0.0000000 )
                  (  0.0000000  0.0000000 -1.0000000 )
                  (  0.0000000  1.0000000  0.0000000 )


      isym = 17     120 deg rotation - cart. axis [-1,-1,-1]     

 cryst.   s(17) = (     0          0          1      )
                  (     1          0          0      )
                  (     0          1          0      )

 cart.    s(17) = (  0.0000000  1.0000000  0.0000000 )
                  (  0.0000000  0.0000000  1.0000000 )
                  (  1.0000000  0.0000000  0.0000000 )


      isym = 18     120 deg rotation - cart. axis [-1,1,1]       

 cryst.   s(18) = (     0          0         -1      )
                  (    -1          0          0      )
                  (     0          1          0      )

 cart.    s(18) = (  0.0000000 -1.0000000  0.0000000 )
                  (  0.0000000  0.0000000  1.0000000 )
                  ( -1.0000000  0.0000000  0.0000000 )


      isym = 19     120 deg rotation - cart. axis [1,1,-1]       

 cryst.   s(19) = (     0          0         -1      )
                  (     1          0          0      )
                  (     0         -1          0      )

 cart.    s(19) = (  0.0000000  1.0000000  0.0000000 )
                  (  0.0000000  0.0000000 -1.0000000 )
                  ( -1.0000000  0.0000000  0.0000000 )


      isym = 20     120 deg rotation - cart. axis [1,-1,1]       

 cryst.   s(20) = (     0          0          1      )
                  (    -1          0          0      )
                  (     0         -1          0      )

 cart.    s(20) = (  0.0000000 -1.0000000  0.0000000 )
                  (  0.0000000  0.0000000 -1.0000000 )
                  (  1.0000000  0.0000000  0.0000000 )


      isym = 21     120 deg rotation - cart. axis [1,1,1]        

 cryst.   s(21) = (     0          1          0      )
                  (     0          0          1      )
                  (     1          0          0      )

 cart.    s(21) = (  0.0000000  0.0000000  1.0000000 )
                  (  1.0000000  0.0000000  0.0000000 )
                  (  0.0000000  1.0000000  0.0000000 )


      isym = 22     120 deg rotation - cart. axis [-1,1,-1]      

 cryst.   s(22) = (     0         -1          0      )
                  (     0          0         -1      )
                  (     1          0          0      )

 cart.    s(22) = (  0.0000000  0.0000000  1.0000000 )
                  ( -1.0000000  0.0000000  0.0000000 )
                  (  0.0000000 -1.0000000  0.0000000 )


      isym = 23     120 deg rotation - cart. axis [1,-1,-1]      

 cryst.   s(23) = (     0         -1          0      )
                  (     0          0          1      )
                  (    -1          0          0      )

 cart.    s(23) = (  0.0000000  0.0000000 -1.0000000 )
                  ( -1.0000000  0.0000000  0.0000000 )
                  (  0.0000000  1.0000000  0.0000000 )


      isym = 24     120 deg rotation - cart. axis [-1,-1,1]      

 cryst.   s(24) = (     0          1          0      )
                  (     0          0         -1      )
                  (    -1          0          0      )

 cart.    s(24) = (  0.0000000  0.0000000 -1.0000000 )
                  (  1.0000000  0.0000000  0.0000000 )
                  (  0.0000000 -1.0000000  0.0000000 )


      isym = 25     inversion                                    

 cryst.   s(25) = (    -1          0          0      )
                  (     0         -1          0      )
                  (     0          0         -1      )

 cart.    s(25) = ( -1.0000000  0.0000000  0.0000000 )
                  (  0.0000000 -1.0000000  0.0000000 )
                  (  0.0000000  0.0000000 -1.0000000 )


      isym = 26     inv. 180 deg rotation - cart. axis [0,0,1]   

 cryst.   s(26) = (     1          0          0      )
                  (     0          1          0      )
                  (     0          0         -1      )

 cart.    s(26) = (  1.0000000  0.0000000  0.0000000 )
                  (  0.0000000  1.0000000  0.0000000 )
                  (  0.0000000  0.0000000 -1.0000000 )


      isym = 27     inv. 180 deg rotation - cart. axis [0,1,0]   

 cryst.   s(27) = (     1          0          0      )
                  (     0         -1          0      )
                  (     0          0          1      )

 cart.    s(27) = (  1.0000000  0.0000000  0.0000000 )
                  (  0.0000000 -1.0000000  0.0000000 )
                  (  0.0000000  0.0000000  1.0000000 )


      isym = 28     inv. 180 deg rotation - cart. axis [1,0,0]   

 cryst.   s(28) = (    -1          0          0      )
                  (     0          1          0      )
                  (     0          0          1      )

 cart.    s(28) = ( -1.0000000  0.0000000  0.0000000 )
                  (  0.0000000  1.0000000  0.0000000 )
                  (  0.0000000  0.0000000  1.0000000 )


      isym = 29     inv. 180 deg rotation - cart. axis [1,1,0]   

 cryst.   s(29) = (     0         -1          0      )
                  (    -1          0          0      )
                  (     0          0          1      )

 cart.    s(29) = (  0.0000000 -1.0000000  0.0000000 )
                  ( -1.0000000  0.0000000  0.0000000 )
                  (  0.0000000  0.0000000  1.0000000 )


      isym = 30     inv. 180 deg rotation - cart. axis [1,-1,0]  

 cryst.   s(30) = (     0          1          0      )
                  (     1          0          0      )
                  (     0          0          1      )

 cart.    s(30) = (  0.0000000  1.0000000  0.0000000 )
                  (  1.0000000  0.0000000  0.0000000 )
                  (  0.0000000  0.0000000  1.0000000 )


      isym = 31     inv.  90 deg rotation - cart. axis [0,0,-1]  

 cryst.   s(31) = (     0          1          0      )
                  (    -1          0          0      )
                  (     0          0         -1      )

 cart.    s(31) = (  0.0000000 -1.0000000  0.0000000 )
                  (  1.0000000  0.0000000  0.0000000 )
                  (  0.0000000  0.0000000 -1.0000000 )


      isym = 32     inv.  90 deg rotation - cart. axis [0,0,1]   

 cryst.   s(32) = (     0         -1          0      )
                  (     1          0          0      )
                  (     0          0         -1      )

 cart.    s(32) = (  0.0000000  1.0000000  0.0000000 )
                  ( -1.0000000  0.0000000  0.0000000 )
                  (  0.0000000  0.0000000 -1.0000000 )


      isym = 33     inv. 180 deg rotation - cart. axis [1,0,1]   

 cryst.   s(33) = (     0          0         -1      )
                  (     0          1          0      )
                  (    -1          0          0      )

 cart.    s(33) = (  0.0000000  0.0000000 -1.0000000 )
                  (  0.0000000  1.0000000  0.0000000 )
                  ( -1.0000000  0.0000000  0.0000000 )


      isym = 34     inv. 180 deg rotation - cart. axis [-1,0,1]  

 cryst.   s(34) = (     0          0          1      )
                  (     0          1          0      )
                  (     1          0          0      )

 cart.    s(34) = (  0.0000000  0.0000000  1.0000000 )
                  (  0.0000000  1.0000000  0.0000000 )
                  (  1.0000000  0.0000000  0.0000000 )


      isym = 35     inv.  90 deg rotation - cart. axis [0,1,0]   

 cryst.   s(35) = (     0          0          1      )
                  (     0         -1          0      )
                  (    -1          0          0      )

 cart.    s(35) = (  0.0000000  0.0000000 -1.0000000 )
                  (  0.0000000 -1.0000000  0.0000000 )
                  (  1.0000000  0.0000000  0.0000000 )


      isym = 36     inv.  90 deg rotation - cart. axis [0,-1,0]  

 cryst.   s(36) = (     0          0         -1      )
                  (     0         -1          0      )
                  (     1          0          0      )

 cart.    s(36) = (  0.0000000  0.0000000  1.0000000 )
                  (  0.0000000 -1.0000000  0.0000000 )
                  ( -1.0000000  0.0000000  0.0000000 )


      isym = 37     inv. 180 deg rotation - cart. axis [0,1,1]   

 cryst.   s(37) = (     1          0          0      )
                  (     0          0         -1      )
                  (     0         -1          0      )

 cart.    s(37) = (  1.0000000  0.0000000  0.0000000 )
                  (  0.0000000  0.0000000 -1.0000000 )
                  (  0.0000000 -1.0000000  0.0000000 )


      isym = 38     inv. 180 deg rotation - cart. axis [0,1,-1]  

 cryst.   s(38) = (     1          0          0      )
                  (     0          0          1      )
                  (     0          1          0      )

 cart.    s(38) = (  1.0000000  0.0000000  0.0000000 )
                  (  0.0000000  0.0000000  1.0000000 )
                  (  0.0000000  1.0000000  0.0000000 )


      isym = 39     inv.  90 deg rotation - cart. axis [-1,0,0]  

 cryst.   s(39) = (    -1          0          0      )
                  (     0          0          1      )
                  (     0         -1          0      )

 cart.    s(39) = ( -1.0000000  0.0000000  0.0000000 )
                  (  0.0000000  0.0000000 -1.0000000 )
                  (  0.0000000  1.0000000  0.0000000 )


      isym = 40     inv.  90 deg rotation - cart. axis [1,0,0]   

 cryst.   s(40) = (    -1          0          0      )
                  (     0          0         -1      )
                  (     0          1          0      )

 cart.    s(40) = ( -1.0000000  0.0000000  0.0000000 )
                  (  0.0000000  0.0000000  1.0000000 )
                  (  0.0000000 -1.0000000  0.0000000 )


      isym = 41     inv. 120 deg rotation - cart. axis [-1,-1,-1]

 cryst.   s(41) = (     0          0         -1      )
                  (    -1          0          0      )
                  (     0         -1          0      )

 cart.    s(41) = (  0.0000000 -1.0000000  0.0000000 )
                  (  0.0000000  0.0000000 -1.0000000 )
                  ( -1.0000000  0.0000000  0.0000000 )


      isym = 42     inv. 120 deg rotation - cart. axis [-1,1,1]  

 cryst.   s(42) = (     0          0          1      )
                  (     1          0          0      )
                  (     0         -1          0      )

 cart.    s(42) = (  0.0000000  1.0000000  0.0000000 )
                  (  0.0000000  0.0000000 -1.0000000 )
                  (  1.0000000  0.0000000  0.0000000 )


      isym = 43     inv. 120 deg rotation - cart. axis [1,1,-1]  

 cryst.   s(43) = (     0          0          1      )
                  (    -1          0          0      )
                  (     0          1          0      )

 cart.    s(43) = (  0.0000000 -1.0000000  0.0000000 )
                  (  0.0000000  0.0000000  1.0000000 )
                  (  1.0000000  0.0000000  0.0000000 )


      isym = 44     inv. 120 deg rotation - cart. axis [1,-1,1]  

 cryst.   s(44) = (     0          0         -1      )
                  (     1          0          0      )
                  (     0          1          0      )

 cart.    s(44) = (  0.0000000  1.0000000  0.0000000 )
                  (  0.0000000  0.0000000  1.0000000 )
                  ( -1.0000000  0.0000000  0.0000000 )


      isym = 45     inv. 120 deg rotation - cart. axis [1,1,1]   

 cryst.   s(45) = (     0         -1          0      )
                  (     0          0         -1      )
                  (    -1          0          0      )

 cart.    s(45) = (  0.0000000  0.0000000 -1.0000000 )
                  ( -1.0000000  0.0000000  0.0000000 )
                  (  0.0000000 -1.0000000  0.0000000 )


      isym = 46     inv. 120 deg rotation - cart. axis [-1,1,-1] 

 cryst.   s(46) = (     0          1          0      )
                  (     0          0          1      )
                  (    -1          0          0      )

 cart.    s(46) = (  0.0000000  0.0000000 -1.0000000 )
                  (  1.0000000  0.0000000  0.0000000 )
                  (  0.0000000  1.0000000  0.0000000 )


      isym = 47     inv. 120 deg rotation - cart. axis [1,-1,-1] 

 cryst.   s(47) = (     0          1          0      )
                  (     0          0         -1      )
                  (     1          0          0      )

 cart.    s(47) = (  0.0000000  0.0000000  1.0000000 )
                  (  1.0000000  0.0000000  0.0000000 )
                  (  0.0000000 -1.0000000  0.0000000 )


      isym = 48     inv. 120 deg rotation - cart. axis [-1,-1,1] 

 cryst.   s(48) = (     0         -1          0      )
                  (     0          0          1      )
                  (     1          0          0      )

 cart.    s(48) = (  0.0000000  0.0000000  1.0000000 )
                  ( -1.0000000  0.0000000  0.0000000 )
                  (  0.0000000  1.0000000  0.0000000 )


     point group O_h (m-3m) 
     there are 10 classes
     the character table:

       E     8C3   3C2   6C4   6C2'  i     8S6   3s_h  6S4   6s_d 
A_1g   1.00  1.00  1.00  1.00  1.00  1.00  1.00  1.00  1.00  1.00
A_2g   1.00  1.00  1.00 -1.00 -1.00  1.00  1.00  1.00 -1.00 -1.00
E_g    2.00 -1.00  2.00  0.00  0.00  2.00 -1.00  2.00  0.00  0.00
T_1g   3.00  0.00 -1.00  1.00 -1.00  3.00  0.00 -1.00  1.00 -1.00
T_2g   3.00  0.00 -1.00 -1.00  1.00  3.00  0.00 -1.00 -1.00  1.00
A_1u   1.00  1.00  1.00  1.00  1.00 -1.00 -1.00 -1.00 -1.00 -1.00
A_2u   1.00  1.00  1.00 -1.00 -1.00 -1.00 -1.00 -1.00  1.00  1.00
E_u    2.00 -1.00  2.00  0.00  0.00 -2.00  1.00 -2.00  0.00  0.00
T_1u   3.00  0.00 -1.00  1.00 -1.00 -3.00  0.00  1.00 -1.00  1.00
T_2u   3.00  0.00 -1.00 -1.00  1.00 -3.00  0.00  1.00  1.00 -1.00

     the symmetry operations in each class and the name of the first element:

     E        1
          identity                                               
     8C3     17   19   20   18   24   21   22   23
          120 deg rotation - cart. axis [-1,-1,-1]               
     3C2      2    4    3
          180 deg rotation - cart. axis [0,0,1]                  
     6C4      7    8   15   16   12   11
           90 deg rotation - cart. axis [0,0,-1]                 
     6C2'     5    6   14   13   10    9
          180 deg rotation - cart. axis [1,1,0]                  
     i       25
          inversion                                              
     8S6     41   43   44   42   48   45   46   47
          inv. 120 deg rotation - cart. axis [-1,-1,-1]          
     3s_h    26   28   27
          inv. 180 deg rotation - cart. axis [0,0,1]             
     6S4     31   32   39   40   36   35
          inv.  90 deg rotation - cart. axis [0,0,-1]            
     6s_d    29   30   38   37   34   33
          inv. 180 deg rotation - cart. axis [1,1,0]             

   Cartesian axes

     site n.     atom                  positions (alat units)
         1           Ni  tau(   1) = (   0.0000000   0.0000000   0.0000000  )

   Crystallographic axes

     site n.     atom                  positions (cryst. coord.)
         1           Ni  tau(   1) = (  0.0000000  0.0000000  0.0000000  )

     number of k points=     1
                       cart. coord. in units 2pi/alat
        k(    1) = (   0.0000000   0.0000000   0.0000000), wk =   1.0000000

                       cryst. coord.
        k(    1) = (   0.0000000   0.0000000   0.0000000), wk =   1.0000000

     Dense  grid:   548956 G-vectors     FFT dimensions: ( 128, 128, 128)

     Occupations read from input 

      Spin-up

        1.0000   1.0000   1.0000   1.0000   1.0000   1.0000   1.0000   1.0000
        1.0000   1.0000   0.0000   0.0000   0.0000   0.0000   0.0000

      Spin-down

        1.0000   1.0000   1.0000   1.0000   0.6000   0.6000   0.6000   0.6000
        0.6000   1.0000   0.0000   0.0000   0.0000   0.0000   0.0000

     Dynamical RAM for                 wfc:       0.65 MB

     Dynamical RAM for     wfc (w. buffer):       1.96 MB

     Dynamical RAM for           str. fact:       0.35 MB

     Dynamical RAM for           local pot:       0.00 MB

     Dynamical RAM for          nlocal pot:       0.79 MB

     Dynamical RAM for                qrad:       2.05 MB

     Dynamical RAM for          rho,v,vnew:       6.59 MB

     Dynamical RAM for               rhoin:       2.20 MB

     Dynamical RAM for            rho*nmix:      11.17 MB

     Dynamical RAM for           G-vectors:       1.48 MB

     Dynamical RAM for          h,s,v(r/c):       0.02 MB

     Dynamical RAM for          <psi|beta>:       0.00 MB

     Dynamical RAM for                 psi:       1.31 MB

     Dynamical RAM for                hpsi:       1.31 MB

     Dynamical RAM for      wfcinit/wfcrot:       1.31 MB

     Estimated static dynamical RAM per process >      20.62 MB

     Estimated max dynamical RAM per process >      34.43 MB

     Estimated total dynamical RAM >     826.26 MB
     Generating pointlists ...
     new r_m :   0.4125 (alat units)  6.5019 (a.u.) for type    1

     Initial potential from superposition of free atoms

     starting charge      17.9998, renormalised to      18.0000

     negative rho (up, down):  1.155E-06 2.985E-17
     Starting wfcs are   10 randomized atomic wfcs +    5 random wfcs

     total cpu time spent up to now is        1.0 secs

     per-process dynamical memory:    32.0 Mb

     Self-consistent Calculation

     iteration #  1     ecut=   162.71 Ry     beta= 0.25
     Davidson diagonalization with overlap

---- Real-time Memory Report at c_bands before calling an iterative solver
            65 MiB given to the printing process from OS
            31 MiB allocation reported by mallinfo(arena+hblkhd)
        238079 MiB available memory on the node where the printing process lives
------------------
     ethr =  1.00E-02,  avg # of iterations =  9.5

     negative rho (up, down):  2.074E-07 0.000E+00

     total cpu time spent up to now is        1.6 secs

     total energy              =    -331.68688824 Ry
     estimated scf accuracy    <      13.13572228 Ry

     total magnetization       =     2.00 Bohr mag/cell
     absolute magnetization    =     9.66 Bohr mag/cell

     iteration #  2     ecut=   162.71 Ry     beta= 0.25
     Davidson diagonalization with overlap

---- Real-time Memory Report at c_bands before calling an iterative solver
            81 MiB given to the printing process from OS
            43 MiB allocation reported by mallinfo(arena+hblkhd)
        237795 MiB available memory on the node where the printing process lives
------------------
     ethr =  1.00E-02,  avg # of iterations =  4.5

     negative rho (up, down):  6.067E-08 0.000E+00

     total cpu time spent up to now is        2.0 secs

     total energy              =    -334.35055571 Ry
     estimated scf accuracy    <       4.08441184 Ry

     total magnetization       =     2.00 Bohr mag/cell
     absolute magnetization    =     6.64 Bohr mag/cell

     iteration #  3     ecut=   162.71 Ry     beta= 0.25
     Davidson diagonalization with overlap

---- Real-time Memory Report at c_bands before calling an iterative solver
            83 MiB given to the printing process from OS
            45 MiB allocation reported by mallinfo(arena+hblkhd)
        237755 MiB available memory on the node where the printing process lives
------------------
     ethr =  1.00E-02,  avg # of iterations =  4.5

     negative rho (up, down):  6.047E-08 0.000E+00

     total cpu time spent up to now is        2.4 secs

     total energy              =    -337.64164456 Ry
     estimated scf accuracy    <       5.08767692 Ry

     total magnetization       =     2.00 Bohr mag/cell
     absolute magnetization    =     2.22 Bohr mag/cell

     iteration #  4     ecut=   162.71 Ry     beta= 0.25
     Davidson diagonalization with overlap

---- Real-time Memory Report at c_bands before calling an iterative solver
            84 MiB given to the printing process from OS
            46 MiB allocation reported by mallinfo(arena+hblkhd)
        237725 MiB available memory on the node where the printing process lives
------------------
     ethr =  1.00E-02,  avg # of iterations =  1.0

     negative rho (up, down):  2.001E-05 1.290E-05

     total cpu time spent up to now is        2.7 secs

     total energy              =    -336.73501207 Ry
     estimated scf accuracy    <       5.02729419 Ry

     total magnetization       =     2.00 Bohr mag/cell
     absolute magnetization    =     2.21 Bohr mag/cell

     iteration #  5     ecut=   162.71 Ry     beta= 0.25
     Davidson diagonalization with overlap

---- Real-time Memory Report at c_bands before calling an iterative solver
            86 MiB given to the printing process from OS
            47 MiB allocation reported by mallinfo(arena+hblkhd)
        237689 MiB available memory on the node where the printing process lives
------------------
     ethr =  1.00E-02,  avg # of iterations =  2.5

     negative rho (up, down):  8.902E-06 4.747E-01

     total cpu time spent up to now is        3.0 secs

     total energy              =    -341.26934089 Ry
     estimated scf accuracy    <       3.12858083 Ry

     total magnetization       =     2.00 Bohr mag/cell
     absolute magnetization    =     3.31 Bohr mag/cell

     iteration #  6     ecut=   162.71 Ry     beta= 0.25
     Davidson diagonalization with overlap

---- Real-time Memory Report at c_bands before calling an iterative solver
            87 MiB given to the printing process from OS
            49 MiB allocation reported by mallinfo(arena+hblkhd)
        237656 MiB available memory on the node where the printing process lives
------------------
     ethr =  1.00E-02,  avg # of iterations =  6.0

     negative rho (up, down):  0.000E+00 1.434E-02

     total cpu time spent up to now is        3.5 secs

     total energy              =    -336.40824862 Ry
     estimated scf accuracy    <      71.66664567 Ry

     total magnetization       =     2.00 Bohr mag/cell
     absolute magnetization    =     2.13 Bohr mag/cell

     iteration #  7     ecut=   162.71 Ry     beta= 0.25
     Davidson diagonalization with overlap

---- Real-time Memory Report at c_bands before calling an iterative solver
            88 MiB given to the printing process from OS
            50 MiB allocation reported by mallinfo(arena+hblkhd)
        237620 MiB available memory on the node where the printing process lives
------------------
     ethr =  1.00E-02,  avg # of iterations =  3.0

     negative rho (up, down):  1.312E-05 7.460E-02

     total cpu time spent up to now is        3.8 secs

     total energy              =    -340.70532650 Ry
     estimated scf accuracy    <      44.70327058 Ry

     total magnetization       =     2.00 Bohr mag/cell
     absolute magnetization    =     2.43 Bohr mag/cell

     iteration #  8     ecut=   162.71 Ry     beta= 0.25
     Davidson diagonalization with overlap

---- Real-time Memory Report at c_bands before calling an iterative solver
            90 MiB given to the printing process from OS
            52 MiB allocation reported by mallinfo(arena+hblkhd)
        237588 MiB available memory on the node where the printing process lives
------------------
     ethr =  1.00E-02,  avg # of iterations =  1.0

     negative rho (up, down):  3.256E-03 1.788E-02

     total cpu time spent up to now is        4.1 secs

     total energy              =    -334.98718251 Ry
     estimated scf accuracy    <      52.18094686 Ry

     total magnetization       =     2.00 Bohr mag/cell
     absolute magnetization    =     2.21 Bohr mag/cell

     iteration #  9     ecut=   162.71 Ry     beta= 0.25
     Davidson diagonalization with overlap

---- Real-time Memory Report at c_bands before calling an iterative solver
            91 MiB given to the printing process from OS
            53 MiB allocation reported by mallinfo(arena+hblkhd)
        237552 MiB available memory on the node where the printing process lives
------------------
     ethr =  1.00E-02,  avg # of iterations =  3.5

     negative rho (up, down):  6.399E-03 1.842E-02

     total cpu time spent up to now is        4.5 secs

     total energy              =    -335.42464699 Ry
     estimated scf accuracy    <      31.50653160 Ry

     total magnetization       =     2.00 Bohr mag/cell
     absolute magnetization    =     3.03 Bohr mag/cell

     iteration # 10     ecut=   162.71 Ry     beta= 0.25
     Davidson diagonalization with overlap

---- Real-time Memory Report at c_bands before calling an iterative solver
            93 MiB given to the printing process from OS
            54 MiB allocation reported by mallinfo(arena+hblkhd)
        237520 MiB available memory on the node where the printing process lives
------------------
     ethr =  1.00E-02,  avg # of iterations =  1.0

     negative rho (up, down):  5.280E-02 3.469E-01

     total cpu time spent up to now is        4.8 secs

     total energy              =    -344.26202873 Ry
     estimated scf accuracy    <      30.66940688 Ry

     total magnetization       =     2.00 Bohr mag/cell
     absolute magnetization    =     3.05 Bohr mag/cell

     iteration # 11     ecut=   162.71 Ry     beta= 0.25
     Davidson diagonalization with overlap

---- Real-time Memory Report at c_bands before calling an iterative solver
            93 MiB given to the printing process from OS
            54 MiB allocation reported by mallinfo(arena+hblkhd)
        237520 MiB available memory on the node where the printing process lives
------------------
     ethr =  1.00E-02,  avg # of iterations =  3.5

     negative rho (up, down):  4.263E-01 2.551E-01

     total cpu time spent up to now is        5.1 secs

     total energy              =    -335.81295342 Ry
     estimated scf accuracy    <      64.38339280 Ry

     total magnetization       =     2.00 Bohr mag/cell
     absolute magnetization    =     2.07 Bohr mag/cell

     iteration # 12     ecut=   162.71 Ry     beta= 0.25
     Davidson diagonalization with overlap

---- Real-time Memory Report at c_bands before calling an iterative solver
            93 MiB given to the printing process from OS
            54 MiB allocation reported by mallinfo(arena+hblkhd)
        237521 MiB available memory on the node where the printing process lives
------------------
     ethr =  1.00E-02,  avg # of iterations =  2.0

     negative rho (up, down):  3.697E-01 9.534E-02

     total cpu time spent up to now is        5.4 secs

     total energy              =    -330.78345943 Ry
     estimated scf accuracy    <      47.74093649 Ry

     total magnetization       =     2.00 Bohr mag/cell
     absolute magnetization    =     2.64 Bohr mag/cell

     iteration # 13     ecut=   162.71 Ry     beta= 0.25
     Davidson diagonalization with overlap

---- Real-time Memory Report at c_bands before calling an iterative solver
            93 MiB given to the printing process from OS
            54 MiB allocation reported by mallinfo(arena+hblkhd)
        237521 MiB available memory on the node where the printing process lives
------------------
     ethr =  1.00E-02,  avg # of iterations =  7.5

     negative rho (up, down):  1.197E+00 4.806E-01

     total cpu time spent up to now is        5.8 secs

     total energy              =    -325.51242270 Ry
     estimated scf accuracy    <      13.68913994 Ry

     total magnetization       =     2.00 Bohr mag/cell
     absolute magnetization    =     3.58 Bohr mag/cell

     iteration # 14     ecut=   162.71 Ry     beta= 0.25
     Davidson diagonalization with overlap

---- Real-time Memory Report at c_bands before calling an iterative solver
            93 MiB given to the printing process from OS
            54 MiB allocation reported by mallinfo(arena+hblkhd)
        237521 MiB available memory on the node where the printing process lives
------------------
     ethr =  1.00E-02,  avg # of iterations =  6.0

     negative rho (up, down):  1.163E+00 5.067E-01

     total cpu time spent up to now is        6.2 secs

     total energy              =    -333.86256532 Ry
     estimated scf accuracy    <       1.09843470 Ry

     total magnetization       =     2.00 Bohr mag/cell
     absolute magnetization    =     2.75 Bohr mag/cell

     iteration # 15     ecut=   162.71 Ry     beta= 0.25
     Davidson diagonalization with overlap

---- Real-time Memory Report at c_bands before calling an iterative solver
            93 MiB given to the printing process from OS
            54 MiB allocation reported by mallinfo(arena+hblkhd)
        237521 MiB available memory on the node where the printing process lives
------------------
     ethr =  6.10E-03,  avg # of iterations =  8.0

     negative rho (up, down):  4.001E-01 1.533E-01

     total cpu time spent up to now is        6.7 secs

     total energy              =    -341.29226047 Ry
     estimated scf accuracy    <      16.48102425 Ry

     total magnetization       =     2.00 Bohr mag/cell
     absolute magnetization    =     2.02 Bohr mag/cell

     iteration # 16     ecut=   162.71 Ry     beta= 0.25
     Davidson diagonalization with overlap

---- Real-time Memory Report at c_bands before calling an iterative solver
            93 MiB given to the printing process from OS
            54 MiB allocation reported by mallinfo(arena+hblkhd)
        237521 MiB available memory on the node where the printing process lives
------------------
     ethr =  6.10E-03,  avg # of iterations =  2.0

     negative rho (up, down):  3.815E-02 1.770E-02

     total cpu time spent up to now is        7.0 secs

     total energy              =    -338.96979321 Ry
     estimated scf accuracy    <       7.04009707 Ry

     total magnetization       =     2.00 Bohr mag/cell
     absolute magnetization    =     2.01 Bohr mag/cell

     iteration # 17     ecut=   162.71 Ry     beta= 0.25
     Davidson diagonalization with overlap

---- Real-time Memory Report at c_bands before calling an iterative solver
            93 MiB given to the printing process from OS
            54 MiB allocation reported by mallinfo(arena+hblkhd)
        237520 MiB available memory on the node where the printing process lives
------------------
     ethr =  6.10E-03,  avg # of iterations =  2.0

     negative rho (up, down):  4.770E-03 8.696E-03

     total cpu time spent up to now is        7.4 secs

     total energy              =    -339.24452035 Ry
     estimated scf accuracy    <       2.52994334 Ry

     total magnetization       =     2.00 Bohr mag/cell
     absolute magnetization    =     2.01 Bohr mag/cell

     iteration # 18     ecut=   162.71 Ry     beta= 0.25
     Davidson diagonalization with overlap

---- Real-time Memory Report at c_bands before calling an iterative solver
            93 MiB given to the printing process from OS
            54 MiB allocation reported by mallinfo(arena+hblkhd)
        237520 MiB available memory on the node where the printing process lives
------------------
     ethr =  6.10E-03,  avg # of iterations =  1.0

     negative rho (up, down):  2.901E-02 9.901E-03

     total cpu time spent up to now is        7.7 secs

     total energy              =    -338.72777151 Ry
     estimated scf accuracy    <       2.45751197 Ry

     total magnetization       =     2.00 Bohr mag/cell
     absolute magnetization    =     2.01 Bohr mag/cell

     iteration # 19     ecut=   162.71 Ry     beta= 0.25
     Davidson diagonalization with overlap

---- Real-time Memory Report at c_bands before calling an iterative solver
            93 MiB given to the printing process from OS
            54 MiB allocation reported by mallinfo(arena+hblkhd)
        237520 MiB available memory on the node where the printing process lives
------------------
     ethr =  6.10E-03,  avg # of iterations =  1.0

     negative rho (up, down):  7.773E-03 4.943E-03

     total cpu time spent up to now is        8.0 secs

     total energy              =    -338.40445921 Ry
     estimated scf accuracy    <       1.57967656 Ry

     total magnetization       =     2.00 Bohr mag/cell
     absolute magnetization    =     2.01 Bohr mag/cell

     iteration # 20     ecut=   162.71 Ry     beta= 0.25
     Davidson diagonalization with overlap

---- Real-time Memory Report at c_bands before calling an iterative solver
            93 MiB given to the printing process from OS
            54 MiB allocation reported by mallinfo(arena+hblkhd)
        237522 MiB available memory on the node where the printing process lives
------------------
     ethr =  6.10E-03,  avg # of iterations =  1.0

     negative rho (up, down):  1.878E-02 1.220E-02

     total cpu time spent up to now is        8.4 secs

     total energy              =    -338.17799038 Ry
     estimated scf accuracy    <       0.92278376 Ry

     total magnetization       =     2.00 Bohr mag/cell
     absolute magnetization    =     2.02 Bohr mag/cell

     iteration # 21     ecut=   162.71 Ry     beta= 0.25
     Davidson diagonalization with overlap

---- Real-time Memory Report at c_bands before calling an iterative solver
            93 MiB given to the printing process from OS
            54 MiB allocation reported by mallinfo(arena+hblkhd)
        237521 MiB available memory on the node where the printing process lives
------------------
     ethr =  5.13E-03,  avg # of iterations =  1.0

     negative rho (up, down):  4.236E-02 5.109E-02

     total cpu time spent up to now is        8.7 secs

     total energy              =    -337.82612552 Ry
     estimated scf accuracy    <       0.47843459 Ry

     total magnetization       =     2.00 Bohr mag/cell
     absolute magnetization    =     2.02 Bohr mag/cell

     iteration # 22     ecut=   162.71 Ry     beta= 0.25
     Davidson diagonalization with overlap

---- Real-time Memory Report at c_bands before calling an iterative solver
            93 MiB given to the printing process from OS
            54 MiB allocation reported by mallinfo(arena+hblkhd)
        237521 MiB available memory on the node where the printing process lives
------------------
     ethr =  2.66E-03,  avg # of iterations =  2.0

     negative rho (up, down):  4.236E-03 3.195E-03

     total cpu time spent up to now is        9.1 secs

     total energy              =    -337.93440142 Ry
     estimated scf accuracy    <       0.04024841 Ry

     total magnetization       =     2.00 Bohr mag/cell
     absolute magnetization    =     2.04 Bohr mag/cell

     iteration # 23     ecut=   162.71 Ry     beta= 0.25
     Davidson diagonalization with overlap

---- Real-time Memory Report at c_bands before calling an iterative solver
            93 MiB given to the printing process from OS
            54 MiB allocation reported by mallinfo(arena+hblkhd)
        237521 MiB available memory on the node where the printing process lives
------------------
     ethr =  2.24E-04,  avg # of iterations =  3.5

     negative rho (up, down):  2.133E-03 1.081E-02

     total cpu time spent up to now is        9.4 secs

     total energy              =    -337.94412319 Ry
     estimated scf accuracy    <       0.02952125 Ry

     total magnetization       =     2.00 Bohr mag/cell
     absolute magnetization    =     2.03 Bohr mag/cell

     iteration # 24     ecut=   162.71 Ry     beta= 0.25
     Davidson diagonalization with overlap

---- Real-time Memory Report at c_bands before calling an iterative solver
            93 MiB given to the printing process from OS
            54 MiB allocation reported by mallinfo(arena+hblkhd)
        237521 MiB available memory on the node where the printing process lives
------------------
     ethr =  1.64E-04,  avg # of iterations =  2.0

     negative rho (up, down):  1.640E-04 9.886E-04

     total cpu time spent up to now is        9.8 secs

     total energy              =    -337.95284667 Ry
     estimated scf accuracy    <       0.00529044 Ry

     total magnetization       =     2.00 Bohr mag/cell
     absolute magnetization    =     2.04 Bohr mag/cell

     iteration # 25     ecut=   162.71 Ry     beta= 0.25
     Davidson diagonalization with overlap

---- Real-time Memory Report at c_bands before calling an iterative solver
            93 MiB given to the printing process from OS
            54 MiB allocation reported by mallinfo(arena+hblkhd)
        237521 MiB available memory on the node where the printing process lives
------------------
     ethr =  2.94E-05,  avg # of iterations =  4.5

     negative rho (up, down):  7.905E-04 1.285E-03

     total cpu time spent up to now is       10.2 secs

     total energy              =    -337.95357635 Ry
     estimated scf accuracy    <       0.00026874 Ry

     total magnetization       =     2.00 Bohr mag/cell
     absolute magnetization    =     2.04 Bohr mag/cell

     iteration # 26     ecut=   162.71 Ry     beta= 0.25
     Davidson diagonalization with overlap

---- Real-time Memory Report at c_bands before calling an iterative solver
            93 MiB given to the printing process from OS
            54 MiB allocation reported by mallinfo(arena+hblkhd)
        237520 MiB available memory on the node where the printing process lives
------------------
     ethr =  1.49E-06,  avg # of iterations =  9.5

     negative rho (up, down):  7.099E-04 7.875E-04

     total cpu time spent up to now is       10.6 secs

     total energy              =    -337.95350844 Ry
     estimated scf accuracy    <       0.00040000 Ry

     total magnetization       =     2.00 Bohr mag/cell
     absolute magnetization    =     2.04 Bohr mag/cell

     iteration # 27     ecut=   162.71 Ry     beta= 0.25
     Davidson diagonalization with overlap

---- Real-time Memory Report at c_bands before calling an iterative solver
            93 MiB given to the printing process from OS
            54 MiB allocation reported by mallinfo(arena+hblkhd)
        237520 MiB available memory on the node where the printing process lives
------------------
     ethr =  1.49E-06,  avg # of iterations =  2.0

     negative rho (up, down):  1.332E-04 1.663E-04

     total cpu time spent up to now is       10.9 secs

     total energy              =    -337.95342390 Ry
     estimated scf accuracy    <       0.00018788 Ry

     total magnetization       =     2.00 Bohr mag/cell
     absolute magnetization    =     2.04 Bohr mag/cell

     iteration # 28     ecut=   162.71 Ry     beta= 0.25
     Davidson diagonalization with overlap

---- Real-time Memory Report at c_bands before calling an iterative solver
            93 MiB given to the printing process from OS
            54 MiB allocation reported by mallinfo(arena+hblkhd)
        237520 MiB available memory on the node where the printing process lives
------------------
     ethr =  1.04E-06,  avg # of iterations = 15.5

     negative rho (up, down):  0.000E+00 4.466E-07

     total cpu time spent up to now is       11.4 secs

     total energy              =    -337.95346639 Ry
     estimated scf accuracy    <       0.00000330 Ry

     total magnetization       =     2.00 Bohr mag/cell
     absolute magnetization    =     2.04 Bohr mag/cell

     iteration # 29     ecut=   162.71 Ry     beta= 0.25
     Davidson diagonalization with overlap

---- Real-time Memory Report at c_bands before calling an iterative solver
            93 MiB given to the printing process from OS
            54 MiB allocation reported by mallinfo(arena+hblkhd)
        237521 MiB available memory on the node where the printing process lives
------------------
     ethr =  1.83E-08,  avg # of iterations =  4.0

     total cpu time spent up to now is       11.8 secs

     total energy              =    -337.95346703 Ry
     estimated scf accuracy    <       0.00000068 Ry

     total magnetization       =     2.00 Bohr mag/cell
     absolute magnetization    =     2.04 Bohr mag/cell

     iteration # 30     ecut=   162.71 Ry     beta= 0.25
     Davidson diagonalization with overlap

---- Real-time Memory Report at c_bands before calling an iterative solver
            93 MiB given to the printing process from OS
            54 MiB allocation reported by mallinfo(arena+hblkhd)
        237521 MiB available memory on the node where the printing process lives
------------------
     ethr =  3.76E-09,  avg # of iterations =  2.0

     total cpu time spent up to now is       12.1 secs

     total energy              =    -337.95346722 Ry
     estimated scf accuracy    <       0.00000008 Ry

     total magnetization       =     2.00 Bohr mag/cell
     absolute magnetization    =     2.04 Bohr mag/cell

     iteration # 31     ecut=   162.71 Ry     beta= 0.25
     Davidson diagonalization with overlap

---- Real-time Memory Report at c_bands before calling an iterative solver
            93 MiB given to the printing process from OS
            54 MiB allocation reported by mallinfo(arena+hblkhd)
        237521 MiB available memory on the node where the printing process lives
------------------
     ethr =  4.61E-10,  avg # of iterations =  2.5

     total cpu time spent up to now is       12.5 secs

     total energy              =    -337.95346725 Ry
     estimated scf accuracy    <       0.00000008 Ry

     total magnetization       =     2.00 Bohr mag/cell
     absolute magnetization    =     2.04 Bohr mag/cell

     iteration # 32     ecut=   162.71 Ry     beta= 0.25
     Davidson diagonalization with overlap

---- Real-time Memory Report at c_bands before calling an iterative solver
            93 MiB given to the printing process from OS
            54 MiB allocation reported by mallinfo(arena+hblkhd)
        237521 MiB available memory on the node where the printing process lives
------------------
     ethr =  4.43E-10,  avg # of iterations =  2.0

     Magnetic moment per site  (integrated on atomic sphere of radius R)
     atom   1 (R=0.413)  charge= 17.9869  magn=  2.0017

     total cpu time spent up to now is       12.8 secs

     End of self-consistent calculation

 ------ SPIN UP ------------


          k = 0.0000 0.0000 0.0000 ( 68530 PWs)   bands (ev):

  -111.4958 -71.8793 -71.8793 -71.8793  -9.3442  -9.3442  -9.3441  -9.3441
    -9.3441  -5.3192  -0.6688  -0.6688  -0.6687  -0.0535   1.4535

     occupation numbers 
     1.0000   1.0000   1.0000   1.0000   1.0000   1.0000   1.0000   1.0000
     1.0000   1.0000   0.0000   0.0000   0.0000   0.0000   0.0000

 ------ SPIN DOWN ----------


          k = 0.0000 0.0000 0.0000 ( 68530 PWs)   bands (ev):

  -109.4481 -69.7263 -69.7263 -69.7263  -7.2751  -7.2750  -7.2749  -7.2749
    -7.2749  -5.0022  -0.5593  -0.5593  -0.5593  -0.0600   1.4257

     occupation numbers 
     1.0000   1.0000   1.0000   1.0000   0.6000   0.6000   0.6000   0.6000
     0.6000   1.0000   0.0000   0.0000   0.0000   0.0000   0.0000

     highest occupied, lowest unoccupied level (ev):    -5.0022   -0.6688

!    total energy              =    -337.95346730 Ry
     estimated scf accuracy    <          8.7E-09 Ry

     The total energy is the sum of the following terms:
     one-electron contribution =    -463.73891201 Ry
     hartree contribution      =     227.24490534 Ry
     xc contribution           =     -43.13737467 Ry
     ewald contribution        =     -58.32208596 Ry

     total magnetization       =     2.00 Bohr mag/cell
     absolute magnetization    =     2.04 Bohr mag/cell

     convergence has been achieved in  32 iterations

     Forces acting on atoms (cartesian axes, Ry/au):

     atom    1 type  1   force =     0.00000000    0.00000000    0.00000000
     The non-local contrib.  to forces
     atom    1 type  1   force =     0.00000000    0.00000000    0.00000000
     The ionic contribution  to forces
     atom    1 type  1   force =    -0.00000000   -0.00000000   -0.00000000
     The local contribution  to forces
     atom    1 type  1   force =    -0.00008665    0.00021092    0.00000589
     The core correction contribution to forces
     atom    1 type  1   force =    -0.00000036    0.00000104    0.00000174
     The Hubbard contrib.    to forces
     atom    1 type  1   force =     0.00000000    0.00000000    0.00000000
     The SCF correction term to forces
     atom    1 type  1   force =     0.00011159   -0.00026471   -0.00000515

     Total force =     0.000000     Total SCF correction =     0.000287

     Writing all to output data dir ./Ni.save/

     init_run     :      0.94s CPU      0.98s WALL (       1 calls)
     electrons    :     10.87s CPU     11.83s WALL (       1 calls)
     forces       :      0.27s CPU      0.29s WALL (       1 calls)

     Called by init_run:
     wfcinit      :      0.07s CPU      0.08s WALL (       1 calls)
     wfcinit:atom :      0.00s CPU      0.00s WALL (       2 calls)
     wfcinit:wfcr :      0.06s CPU      0.07s WALL (       2 calls)
     potinit      :      0.20s CPU      0.22s WALL (       1 calls)
     hinit0       :      0.56s CPU      0.57s WALL (       1 calls)

     Called by electrons:
     c_bands      :      4.29s CPU      4.62s WALL (      32 calls)
     sum_band     :      0.84s CPU      0.93s WALL (      32 calls)
     v_of_rho     :      4.84s CPU      5.34s WALL (      33 calls)
     v_h          :      0.12s CPU      0.16s WALL (      33 calls)
     v_xc         :      4.87s CPU      5.35s WALL (      34 calls)
     mix_rho      :      0.82s CPU      0.85s WALL (      32 calls)

     Called by c_bands:
     init_us_2    :      0.07s CPU      0.08s WALL (     132 calls)
     init_us_2:cp :      0.07s CPU      0.07s WALL (     132 calls)
     regterg      :      4.12s CPU      4.44s WALL (      64 calls)

     Called by sum_band:
     sum_band:wei :      0.00s CPU      0.00s WALL (      32 calls)
     sum_band:loo :      0.63s CPU      0.68s WALL (      32 calls)
     sum_band:buf :      0.01s CPU      0.01s WALL (      64 calls)
     sum_band:ini :      0.03s CPU      0.04s WALL (      64 calls)

     Called by *egterg:
     rdiaghg      :      0.06s CPU      0.06s WALL (     306 calls)
     regterg:over :      0.12s CPU      0.13s WALL (     242 calls)
     regterg:upda :      0.07s CPU      0.08s WALL (     242 calls)
     regterg:last :      0.10s CPU      0.10s WALL (     142 calls)
     h_psi        :      3.70s CPU      4.00s WALL (     308 calls)
     g_psi        :      0.02s CPU      0.02s WALL (     242 calls)

     Called by h_psi:
     h_psi:calbec :      0.10s CPU      0.11s WALL (     308 calls)
     vloc_psi     :      3.54s CPU      3.83s WALL (     308 calls)
     add_vuspsi   :      0.04s CPU      0.04s WALL (     308 calls)

     General routines
     calbec       :      0.10s CPU      0.11s WALL (     316 calls)
     fft          :      1.61s CPU      1.84s WALL (     442 calls)
     ffts         :      0.08s CPU      0.09s WALL (      32 calls)
     fftw         :      3.68s CPU      3.99s WALL (    3480 calls)

     Parallel routines

     PWSCF        :     12.16s CPU     13.25s WALL


   This run was terminated on:  17:37:55  26Feb2023            

=------------------------------------------------------------------------------=
   JOB DONE.
=------------------------------------------------------------------------------=
