
     Program PWSCF v.7.0 starts on 17Oct2022 at 16:35: 7 

     This program is part of the open-source Quantum ESPRESSO suite
     for quantum simulation of materials; please cite
         "P. Giannozzi et al., J. Phys.:Condens. Matter 21 395502 (2009);
         "P. Giannozzi et al., J. Phys.:Condens. Matter 29 465901 (2017);
         "P. Giannozzi et al., J. Chem. Phys. 152 154105 (2020);
          URL http://www.quantum-espresso.org", 
     in publications or presentations arising from this work. More details at
     http://www.quantum-espresso.org/quote

     Parallel version (MPI), running on    32 processors

     MPI processes distributed on     1 nodes
     R & G space division:  proc/nbgrp/npool/nimage =      32
     246654 MiB available memory on the printing compute node when the environment starts

     Waiting for input...
     Reading input from standard input

     Current dimensions of program PWSCF are:
     Max number of different atomic species (ntypx) = 10
     Max number of k-points (npk) =  40000
     Max angular momentum in pseudopotentials (lmaxx) =  4

     IMPORTANT: XC functional enforced from input :
     Exchange-correlation= PBE
                           (   1   4   3   4   0   0   0)
     Any further DFT definition will be discarded
     Please, verify this is what you really want


     gamma-point specific algorithms are used
     Found identity + ( -0.2500 -0.2500 -0.5000) symmetry
     This is a supercell, fractional translations are disabled

     Subspace diagonalization in iterative solution of the eigenvalue problem:
     a serial algorithm will be used


     Parallelization info
     --------------------
     sticks:   dense  smooth     PW     G-vecs:    dense   smooth      PW
     Min        1059    1059    264               147216   147216   18396
     Max        1064    1064    266               147226   147226   18406
     Sum       33949   33949   8497              4711045  4711045  588817

     Using Slab Decomposition



     bravais-lattice index     =            8
     lattice parameter (alat)  =      15.7622  a.u.
     unit-cell volume          =    3916.0705 (a.u.)^3
     number of atoms/cell      =           64
     number of atomic types    =            3
     number of electrons       =       768.00
     number of Kohn-Sham states=          448
     kinetic-energy cutoff     =     429.6680  Ry
     charge density cutoff     =    1718.6720  Ry
     scf convergence threshold =      1.0E-08
     mixing beta               =       0.2500
     number of iterations used =            8  plain     mixing
     Exchange-correlation= PBE
                           (   1   4   3   4   0   0   0)

     celldm(1)=  15.762200  celldm(2)=   1.000000  celldm(3)=   1.000000
     celldm(4)=   0.000000  celldm(5)=   0.000000  celldm(6)=   0.000000

     crystal axes: (cart. coord. in units of alat)
               a(1) = (   1.000000   0.000000   0.000000 )  
               a(2) = (   0.000000   1.000000   0.000000 )  
               a(3) = (   0.000000   0.000000   1.000000 )  

     reciprocal axes: (cart. coord. in units 2 pi/alat)
               b(1) = (  1.000000  0.000000  0.000000 )  
               b(2) = (  0.000000  1.000000  0.000000 )  
               b(3) = (  0.000000  0.000000  1.000000 )  


     PseudoPot. # 1 for O  read from file:
     /home/emil/Pseudo/nc-sr-04_pbe_stringent/O.upf
     MD5 check sum: 9db02a5ece9d56b81b65a73f8163743d
     Pseudo is Norm-conserving + core correction, Zval =  6.0
     Generated using ONCVPSP code by D. R. Hamann
     Using radial grid of  936 points,  5 beta functions with: 
                l(1) =   0
                l(2) =   0
                l(3) =   1
                l(4) =   1
                l(5) =   2

     PseudoPot. # 2 for Ni read from file:
     /home/emil/Pseudo/nc-sr-04_pbe_stringent/Ni.upf
     MD5 check sum: ff72d48937b3d9f5815e777d24fa1439
     Pseudo is Norm-conserving + core correction, Zval = 18.0
     Generated using ONCVPSP code by D. R. Hamann
     Using radial grid of 1372 points,  6 beta functions with: 
                l(1) =   0
                l(2) =   0
                l(3) =   1
                l(4) =   1
                l(5) =   2
                l(6) =   2

     PseudoPot. # 3 for Ni read from file:
     /home/emil/Pseudo/nc-sr-04_pbe_stringent/Ni.upf
     MD5 check sum: ff72d48937b3d9f5815e777d24fa1439
     Pseudo is Norm-conserving + core correction, Zval = 18.0
     Generated using ONCVPSP code by D. R. Hamann
     Using radial grid of 1372 points,  6 beta functions with: 
                l(1) =   0
                l(2) =   0
                l(3) =   1
                l(4) =   1
                l(5) =   2
                l(6) =   2

     atomic species   valence    mass     pseudopotential
        O              6.00     1.00000     O ( 1.00)
        Ni            18.00     1.00000     Ni( 1.00)
        Ni1           18.00     1.00000     Ni( 1.00)

     Starting magnetic structure 
     atomic species   magnetization
        O            0.000
        Ni           1.000
        Ni1         -1.000


     Simplified LDA+U calculation (l_max = 2) with parameters (eV):
     atomic species    L          U    alpha       J0     beta
        Ni             2     6.5000   0.0000   0.0000   0.0000
        Ni1            2     6.5000   0.0000   0.0000   0.0000



     12 Sym. Ops., with inversion, found


                                    s                        frac. trans.

      isym =  1     identity                                     

 cryst.   s( 1) = (     1          0          0      )
                  (     0          1          0      )
                  (     0          0          1      )

 cart.    s( 1) = (  1.0000000  0.0000000  0.0000000 )
                  (  0.0000000  1.0000000  0.0000000 )
                  (  0.0000000  0.0000000  1.0000000 )


      isym =  2     180 deg rotation - cart. axis [1,-1,0]       

 cryst.   s( 2) = (     0         -1          0      )
                  (    -1          0          0      )
                  (     0          0         -1      )

 cart.    s( 2) = (  0.0000000 -1.0000000  0.0000000 )
                  ( -1.0000000  0.0000000  0.0000000 )
                  (  0.0000000  0.0000000 -1.0000000 )


      isym =  3     180 deg rotation - cart. axis [-1,0,1]       

 cryst.   s( 3) = (     0          0         -1      )
                  (     0         -1          0      )
                  (    -1          0          0      )

 cart.    s( 3) = (  0.0000000  0.0000000 -1.0000000 )
                  (  0.0000000 -1.0000000  0.0000000 )
                  ( -1.0000000  0.0000000  0.0000000 )


      isym =  4     180 deg rotation - cart. axis [0,1,-1]       

 cryst.   s( 4) = (    -1          0          0      )
                  (     0          0         -1      )
                  (     0         -1          0      )

 cart.    s( 4) = ( -1.0000000  0.0000000  0.0000000 )
                  (  0.0000000  0.0000000 -1.0000000 )
                  (  0.0000000 -1.0000000  0.0000000 )


      isym =  5     120 deg rotation - cart. axis [-1,-1,-1]     

 cryst.   s( 5) = (     0          0          1      )
                  (     1          0          0      )
                  (     0          1          0      )

 cart.    s( 5) = (  0.0000000  1.0000000  0.0000000 )
                  (  0.0000000  0.0000000  1.0000000 )
                  (  1.0000000  0.0000000  0.0000000 )


      isym =  6     120 deg rotation - cart. axis [1,1,1]        

 cryst.   s( 6) = (     0          1          0      )
                  (     0          0          1      )
                  (     1          0          0      )

 cart.    s( 6) = (  0.0000000  0.0000000  1.0000000 )
                  (  1.0000000  0.0000000  0.0000000 )
                  (  0.0000000  1.0000000  0.0000000 )


      isym =  7     inversion                                    

 cryst.   s( 7) = (    -1          0          0      )
                  (     0         -1          0      )
                  (     0          0         -1      )

 cart.    s( 7) = ( -1.0000000  0.0000000  0.0000000 )
                  (  0.0000000 -1.0000000  0.0000000 )
                  (  0.0000000  0.0000000 -1.0000000 )


      isym =  8     inv. 180 deg rotation - cart. axis [1,-1,0]  

 cryst.   s( 8) = (     0          1          0      )
                  (     1          0          0      )
                  (     0          0          1      )

 cart.    s( 8) = (  0.0000000  1.0000000  0.0000000 )
                  (  1.0000000  0.0000000  0.0000000 )
                  (  0.0000000  0.0000000  1.0000000 )


      isym =  9     inv. 180 deg rotation - cart. axis [-1,0,1]  

 cryst.   s( 9) = (     0          0          1      )
                  (     0          1          0      )
                  (     1          0          0      )

 cart.    s( 9) = (  0.0000000  0.0000000  1.0000000 )
                  (  0.0000000  1.0000000  0.0000000 )
                  (  1.0000000  0.0000000  0.0000000 )


      isym = 10     inv. 180 deg rotation - cart. axis [0,1,-1]  

 cryst.   s(10) = (     1          0          0      )
                  (     0          0          1      )
                  (     0          1          0      )

 cart.    s(10) = (  1.0000000  0.0000000  0.0000000 )
                  (  0.0000000  0.0000000  1.0000000 )
                  (  0.0000000  1.0000000  0.0000000 )


      isym = 11     inv. 120 deg rotation - cart. axis [-1,-1,-1]

 cryst.   s(11) = (     0          0         -1      )
                  (    -1          0          0      )
                  (     0         -1          0      )

 cart.    s(11) = (  0.0000000 -1.0000000  0.0000000 )
                  (  0.0000000  0.0000000 -1.0000000 )
                  ( -1.0000000  0.0000000  0.0000000 )


      isym = 12     inv. 120 deg rotation - cart. axis [1,1,1]   

 cryst.   s(12) = (     0         -1          0      )
                  (     0          0         -1      )
                  (    -1          0          0      )

 cart.    s(12) = (  0.0000000  0.0000000 -1.0000000 )
                  ( -1.0000000  0.0000000  0.0000000 )
                  (  0.0000000 -1.0000000  0.0000000 )


     point group D_3d (-3m) 
     there are  6 classes
     the character table:

       E     2C3   3C2'  i     2S6   3s_d 
A_1g   1.00  1.00  1.00  1.00  1.00  1.00
A_2g   1.00  1.00 -1.00  1.00  1.00 -1.00
E_g    2.00 -1.00  0.00  2.00 -1.00  0.00
A_1u   1.00  1.00  1.00 -1.00 -1.00 -1.00
A_2u   1.00  1.00 -1.00 -1.00 -1.00  1.00
E_u    2.00 -1.00  0.00 -2.00  1.00  0.00

     the symmetry operations in each class and the name of the first element:

     E        1
          identity                                               
     2C3      5    6
          120 deg rotation - cart. axis [-1,-1,-1]               
     3C2'     2    4    3
          180 deg rotation - cart. axis [1,-1,0]                 
     i        7
          inversion                                              
     2S6     11   12
          inv. 120 deg rotation - cart. axis [-1,-1,-1]          
     3s_d     8   10    9
          inv. 180 deg rotation - cart. axis [1,-1,0]            

   Cartesian axes

     site n.     atom                  positions (alat units)
         1           O   tau(   1) = (   0.2500000   0.2500000   0.2500000  )
         2           O   tau(   2) = (   0.0000000   0.0000000   0.7500000  )
         3           O   tau(   3) = (   0.2500000   0.0000000   0.5000000  )
         4           O   tau(   4) = (   0.5000000   0.0000000   0.2500000  )
         5           O   tau(   5) = (   0.0000000   0.2500000   0.5000000  )
         6           O   tau(   6) = (   0.5000000   0.2500000   0.0000000  )
         7           O   tau(   7) = (   0.0000000   0.5000000   0.2500000  )
         8           O   tau(   8) = (   0.2500000   0.5000000   0.0000000  )
         9           O   tau(   9) = (   0.7500000   0.2500000   0.7500000  )
        10           O   tau(  10) = (   0.5000000   0.5000000   0.7500000  )
        11           O   tau(  11) = (   0.7500000   0.5000000   0.5000000  )
        12           O   tau(  12) = (   0.2500000   0.7500000   0.7500000  )
        13           O   tau(  13) = (   0.5000000   0.7500000   0.5000000  )
        14           O   tau(  14) = (   0.7500000   0.7500000   0.2500000  )
        15           O   tau(  15) = (   0.7500000   0.0000000   0.0000000  )
        16           O   tau(  16) = (   0.0000000   0.7500000   0.0000000  )
        17           O   tau(  17) = (   0.0000000   0.0000000   0.2500000  )
        18           O   tau(  18) = (   0.2500000   0.0000000   0.0000000  )
        19           O   tau(  19) = (   0.0000000   0.2500000   0.0000000  )
        20           O   tau(  20) = (   0.2500000   0.2500000   0.7500000  )
        21           O   tau(  21) = (   0.5000000   0.2500000   0.5000000  )
        22           O   tau(  22) = (   0.7500000   0.2500000   0.2500000  )
        23           O   tau(  23) = (   0.2500000   0.5000000   0.5000000  )
        24           O   tau(  24) = (   0.5000000   0.5000000   0.2500000  )
        25           O   tau(  25) = (   0.7500000   0.5000000   0.0000000  )
        26           O   tau(  26) = (   0.2500000   0.7500000   0.2500000  )
        27           O   tau(  27) = (   0.5000000   0.7500000   0.0000000  )
        28           O   tau(  28) = (   0.5000000   0.0000000   0.7500000  )
        29           O   tau(  29) = (   0.7500000   0.0000000   0.5000000  )
        30           O   tau(  30) = (   0.0000000   0.5000000   0.7500000  )
        31           O   tau(  31) = (   0.0000000   0.7500000   0.5000000  )
        32           O   tau(  32) = (   0.7500000   0.7500000   0.7500000  )
        33           Ni  tau(  33) = (   0.0000000   0.0000000   0.0000000  )
        34           Ni  tau(  34) = (   0.2500000   0.0000000   0.7500000  )
        35           Ni  tau(  35) = (   0.5000000   0.0000000   0.5000000  )
        36           Ni  tau(  36) = (   0.0000000   0.2500000   0.7500000  )
        37           Ni  tau(  37) = (   0.2500000   0.2500000   0.5000000  )
        38           Ni  tau(  38) = (   0.5000000   0.2500000   0.2500000  )
        39           Ni  tau(  39) = (   0.0000000   0.5000000   0.5000000  )
        40           Ni  tau(  40) = (   0.2500000   0.5000000   0.2500000  )
        41           Ni  tau(  41) = (   0.5000000   0.5000000   0.0000000  )
        42           Ni  tau(  42) = (   0.7500000   0.0000000   0.2500000  )
        43           Ni  tau(  43) = (   0.7500000   0.2500000   0.0000000  )
        44           Ni  tau(  44) = (   0.0000000   0.7500000   0.2500000  )
        45           Ni  tau(  45) = (   0.2500000   0.7500000   0.0000000  )
        46           Ni  tau(  46) = (   0.7500000   0.5000000   0.7500000  )
        47           Ni  tau(  47) = (   0.5000000   0.7500000   0.7500000  )
        48           Ni  tau(  48) = (   0.7500000   0.7500000   0.5000000  )
        49           Ni1 tau(  49) = (   0.2500000   0.2500000   0.0000000  )
        50           Ni1 tau(  50) = (   0.0000000   0.0000000   0.5000000  )
        51           Ni1 tau(  51) = (   0.2500000   0.0000000   0.2500000  )
        52           Ni1 tau(  52) = (   0.5000000   0.0000000   0.0000000  )
        53           Ni1 tau(  53) = (   0.0000000   0.2500000   0.2500000  )
        54           Ni1 tau(  54) = (   0.0000000   0.5000000   0.0000000  )
        55           Ni1 tau(  55) = (   0.5000000   0.2500000   0.7500000  )
        56           Ni1 tau(  56) = (   0.7500000   0.2500000   0.5000000  )
        57           Ni1 tau(  57) = (   0.2500000   0.5000000   0.7500000  )
        58           Ni1 tau(  58) = (   0.5000000   0.5000000   0.5000000  )
        59           Ni1 tau(  59) = (   0.7500000   0.5000000   0.2500000  )
        60           Ni1 tau(  60) = (   0.2500000   0.7500000   0.5000000  )
        61           Ni1 tau(  61) = (   0.5000000   0.7500000   0.2500000  )
        62           Ni1 tau(  62) = (   0.7500000   0.7500000   0.0000000  )
        63           Ni1 tau(  63) = (   0.7500000   0.0000000   0.7500000  )
        64           Ni1 tau(  64) = (   0.0000000   0.7500000   0.7500000  )

   Crystallographic axes

     site n.     atom                  positions (cryst. coord.)
         1           O   tau(   1) = (  0.2500000  0.2500000  0.2500000  )
         2           O   tau(   2) = (  0.0000000  0.0000000  0.7500000  )
         3           O   tau(   3) = (  0.2500000  0.0000000  0.5000000  )
         4           O   tau(   4) = (  0.5000000  0.0000000  0.2500000  )
         5           O   tau(   5) = (  0.0000000  0.2500000  0.5000000  )
         6           O   tau(   6) = (  0.5000000  0.2500000  0.0000000  )
         7           O   tau(   7) = (  0.0000000  0.5000000  0.2500000  )
         8           O   tau(   8) = (  0.2500000  0.5000000  0.0000000  )
         9           O   tau(   9) = (  0.7500000  0.2500000  0.7500000  )
        10           O   tau(  10) = (  0.5000000  0.5000000  0.7500000  )
        11           O   tau(  11) = (  0.7500000  0.5000000  0.5000000  )
        12           O   tau(  12) = (  0.2500000  0.7500000  0.7500000  )
        13           O   tau(  13) = (  0.5000000  0.7500000  0.5000000  )
        14           O   tau(  14) = (  0.7500000  0.7500000  0.2500000  )
        15           O   tau(  15) = (  0.7500000  0.0000000  0.0000000  )
        16           O   tau(  16) = (  0.0000000  0.7500000  0.0000000  )
        17           O   tau(  17) = (  0.0000000  0.0000000  0.2500000  )
        18           O   tau(  18) = (  0.2500000  0.0000000  0.0000000  )
        19           O   tau(  19) = (  0.0000000  0.2500000  0.0000000  )
        20           O   tau(  20) = (  0.2500000  0.2500000  0.7500000  )
        21           O   tau(  21) = (  0.5000000  0.2500000  0.5000000  )
        22           O   tau(  22) = (  0.7500000  0.2500000  0.2500000  )
        23           O   tau(  23) = (  0.2500000  0.5000000  0.5000000  )
        24           O   tau(  24) = (  0.5000000  0.5000000  0.2500000  )
        25           O   tau(  25) = (  0.7500000  0.5000000  0.0000000  )
        26           O   tau(  26) = (  0.2500000  0.7500000  0.2500000  )
        27           O   tau(  27) = (  0.5000000  0.7500000  0.0000000  )
        28           O   tau(  28) = (  0.5000000  0.0000000  0.7500000  )
        29           O   tau(  29) = (  0.7500000  0.0000000  0.5000000  )
        30           O   tau(  30) = (  0.0000000  0.5000000  0.7500000  )
        31           O   tau(  31) = (  0.0000000  0.7500000  0.5000000  )
        32           O   tau(  32) = (  0.7500000  0.7500000  0.7500000  )
        33           Ni  tau(  33) = (  0.0000000  0.0000000  0.0000000  )
        34           Ni  tau(  34) = (  0.2500000  0.0000000  0.7500000  )
        35           Ni  tau(  35) = (  0.5000000  0.0000000  0.5000000  )
        36           Ni  tau(  36) = (  0.0000000  0.2500000  0.7500000  )
        37           Ni  tau(  37) = (  0.2500000  0.2500000  0.5000000  )
        38           Ni  tau(  38) = (  0.5000000  0.2500000  0.2500000  )
        39           Ni  tau(  39) = (  0.0000000  0.5000000  0.5000000  )
        40           Ni  tau(  40) = (  0.2500000  0.5000000  0.2500000  )
        41           Ni  tau(  41) = (  0.5000000  0.5000000  0.0000000  )
        42           Ni  tau(  42) = (  0.7500000  0.0000000  0.2500000  )
        43           Ni  tau(  43) = (  0.7500000  0.2500000  0.0000000  )
        44           Ni  tau(  44) = (  0.0000000  0.7500000  0.2500000  )
        45           Ni  tau(  45) = (  0.2500000  0.7500000  0.0000000  )
        46           Ni  tau(  46) = (  0.7500000  0.5000000  0.7500000  )
        47           Ni  tau(  47) = (  0.5000000  0.7500000  0.7500000  )
        48           Ni  tau(  48) = (  0.7500000  0.7500000  0.5000000  )
        49           Ni1 tau(  49) = (  0.2500000  0.2500000  0.0000000  )
        50           Ni1 tau(  50) = (  0.0000000  0.0000000  0.5000000  )
        51           Ni1 tau(  51) = (  0.2500000  0.0000000  0.2500000  )
        52           Ni1 tau(  52) = (  0.5000000  0.0000000  0.0000000  )
        53           Ni1 tau(  53) = (  0.0000000  0.2500000  0.2500000  )
        54           Ni1 tau(  54) = (  0.0000000  0.5000000  0.0000000  )
        55           Ni1 tau(  55) = (  0.5000000  0.2500000  0.7500000  )
        56           Ni1 tau(  56) = (  0.7500000  0.2500000  0.5000000  )
        57           Ni1 tau(  57) = (  0.2500000  0.5000000  0.7500000  )
        58           Ni1 tau(  58) = (  0.5000000  0.5000000  0.5000000  )
        59           Ni1 tau(  59) = (  0.7500000  0.5000000  0.2500000  )
        60           Ni1 tau(  60) = (  0.2500000  0.7500000  0.5000000  )
        61           Ni1 tau(  61) = (  0.5000000  0.7500000  0.2500000  )
        62           Ni1 tau(  62) = (  0.7500000  0.7500000  0.0000000  )
        63           Ni1 tau(  63) = (  0.7500000  0.0000000  0.7500000  )
        64           Ni1 tau(  64) = (  0.0000000  0.7500000  0.7500000  )

     number of k points=     1  Marzari-Vanderbilt smearing, width (Ry)=  0.0002
                       cart. coord. in units 2pi/alat
        k(    1) = (   0.0000000   0.0000000   0.0000000), wk =   1.0000000

                       cryst. coord.
        k(    1) = (   0.0000000   0.0000000   0.0000000), wk =   1.0000000

     Dense  grid:  2355523 G-vectors     FFT dimensions: ( 216, 216, 216)

     Dynamical RAM for                 wfc:      62.90 MB

     Dynamical RAM for     wfc (w. buffer):     188.71 MB

     Dynamical RAM for             U proj.:      22.47 MB

     Dynamical RAM for  U proj. (w. buff.):      67.40 MB

     Dynamical RAM for           str. fact:       3.37 MB

     Dynamical RAM for           local pot:       0.00 MB

     Dynamical RAM for          nlocal pot:     139.29 MB

     Dynamical RAM for                qrad:       9.97 MB

     Dynamical RAM for          rho,v,vnew:      21.69 MB

     Dynamical RAM for               rhoin:       7.23 MB

     Dynamical RAM for            rho*nmix:      35.94 MB

     Dynamical RAM for           G-vectors:       4.77 MB

     Dynamical RAM for          h,s,v(r/c):      18.38 MB

     Dynamical RAM for          <psi|beta>:       3.39 MB

     Dynamical RAM for                 psi:     125.81 MB

     Dynamical RAM for                hpsi:     125.81 MB

     Dynamical RAM for      wfcinit/wfcrot:     130.41 MB

     Estimated static dynamical RAM per process >     461.87 MB

     Estimated max dynamical RAM per process >     771.20 MB

     Estimated total dynamical RAM >      24.10 GB
     Generating pointlists ...
     new r_m :   0.1031 (alat units)  1.6255 (a.u.) for type    1
     new r_m :   0.1031 (alat units)  1.6255 (a.u.) for type    2
     new r_m :   0.1031 (alat units)  1.6255 (a.u.) for type    3

     Initial potential from superposition of free atoms

     starting charge     767.9928, renormalised to     768.0000

     HUBBARD ENERGY =    9.1726  (Ry)
     Number of +U iterations with fixed ns =  0
     Starting occupations:

     Hubbard parameters (eV):
     U(  2) =  6.5000
     U(  3) =  6.5000

     ================= HUBBARD OCCUPATIONS ================
     --------------------- ATOM   33 ----------------------
     Tr[ns] (up, down, total) =   5.00000  3.00000  8.00000
     Atomic magnetic moment =   2.00000
     SPIN  1
     eigenvalues:
       1.000  1.000  1.000  1.000  1.000
     eigenvectors (columns):
       1.000  0.000  0.000  0.000  0.000
       0.000  1.000  0.000  0.000  0.000
       0.000  0.000  1.000  0.000  0.000
       0.000  0.000  0.000  1.000  0.000
       0.000  0.000  0.000  0.000  1.000
     occupation matrix ns (before diag.):
       1.000  0.000  0.000  0.000  0.000
       0.000  1.000  0.000  0.000  0.000
       0.000  0.000  1.000  0.000  0.000
       0.000  0.000  0.000  1.000  0.000
       0.000  0.000  0.000  0.000  1.000
     SPIN  2
     eigenvalues:
       0.600  0.600  0.600  0.600  0.600
     eigenvectors (columns):
       1.000  0.000  0.000  0.000  0.000
       0.000  1.000  0.000  0.000  0.000
       0.000  0.000  1.000  0.000  0.000
       0.000  0.000  0.000  1.000  0.000
       0.000  0.000  0.000  0.000  1.000
     occupation matrix ns (before diag.):
       0.600  0.000  0.000  0.000  0.000
       0.000  0.600  0.000  0.000  0.000
       0.000  0.000  0.600  0.000  0.000
       0.000  0.000  0.000  0.600  0.000
       0.000  0.000  0.000  0.000  0.600
     --------------------- ATOM   34 ----------------------
     Tr[ns] (up, down, total) =   5.00000  3.00000  8.00000
     Atomic magnetic moment =   2.00000
     SPIN  1
     eigenvalues:
       1.000  1.000  1.000  1.000  1.000
     eigenvectors (columns):
       1.000  0.000  0.000  0.000  0.000
       0.000  1.000  0.000  0.000  0.000
       0.000  0.000  1.000  0.000  0.000
       0.000  0.000  0.000  1.000  0.000
       0.000  0.000  0.000  0.000  1.000
     occupation matrix ns (before diag.):
       1.000  0.000  0.000  0.000  0.000
       0.000  1.000  0.000  0.000  0.000
       0.000  0.000  1.000  0.000  0.000
       0.000  0.000  0.000  1.000  0.000
       0.000  0.000  0.000  0.000  1.000
     SPIN  2
     eigenvalues:
       0.600  0.600  0.600  0.600  0.600
     eigenvectors (columns):
       1.000  0.000  0.000  0.000  0.000
       0.000  1.000  0.000  0.000  0.000
       0.000  0.000  1.000  0.000  0.000
       0.000  0.000  0.000  1.000  0.000
       0.000  0.000  0.000  0.000  1.000
     occupation matrix ns (before diag.):
       0.600  0.000  0.000  0.000  0.000
       0.000  0.600  0.000  0.000  0.000
       0.000  0.000  0.600  0.000  0.000
       0.000  0.000  0.000  0.600  0.000
       0.000  0.000  0.000  0.000  0.600
     --------------------- ATOM   35 ----------------------
     Tr[ns] (up, down, total) =   5.00000  3.00000  8.00000
     Atomic magnetic moment =   2.00000
     SPIN  1
     eigenvalues:
       1.000  1.000  1.000  1.000  1.000
     eigenvectors (columns):
       1.000  0.000  0.000  0.000  0.000
       0.000  1.000  0.000  0.000  0.000
       0.000  0.000  1.000  0.000  0.000
       0.000  0.000  0.000  1.000  0.000
       0.000  0.000  0.000  0.000  1.000
     occupation matrix ns (before diag.):
       1.000  0.000  0.000  0.000  0.000
       0.000  1.000  0.000  0.000  0.000
       0.000  0.000  1.000  0.000  0.000
       0.000  0.000  0.000  1.000  0.000
       0.000  0.000  0.000  0.000  1.000
     SPIN  2
     eigenvalues:
       0.600  0.600  0.600  0.600  0.600
     eigenvectors (columns):
       1.000  0.000  0.000  0.000  0.000
       0.000  1.000  0.000  0.000  0.000
       0.000  0.000  1.000  0.000  0.000
       0.000  0.000  0.000  1.000  0.000
       0.000  0.000  0.000  0.000  1.000
     occupation matrix ns (before diag.):
       0.600  0.000  0.000  0.000  0.000
       0.000  0.600  0.000  0.000  0.000
       0.000  0.000  0.600  0.000  0.000
       0.000  0.000  0.000  0.600  0.000
       0.000  0.000  0.000  0.000  0.600
     --------------------- ATOM   36 ----------------------
     Tr[ns] (up, down, total) =   5.00000  3.00000  8.00000
     Atomic magnetic moment =   2.00000
     SPIN  1
     eigenvalues:
       1.000  1.000  1.000  1.000  1.000
     eigenvectors (columns):
       1.000  0.000  0.000  0.000  0.000
       0.000  1.000  0.000  0.000  0.000
       0.000  0.000  1.000  0.000  0.000
       0.000  0.000  0.000  1.000  0.000
       0.000  0.000  0.000  0.000  1.000
     occupation matrix ns (before diag.):
       1.000  0.000  0.000  0.000  0.000
       0.000  1.000  0.000  0.000  0.000
       0.000  0.000  1.000  0.000  0.000
       0.000  0.000  0.000  1.000  0.000
       0.000  0.000  0.000  0.000  1.000
     SPIN  2
     eigenvalues:
       0.600  0.600  0.600  0.600  0.600
     eigenvectors (columns):
       1.000  0.000  0.000  0.000  0.000
       0.000  1.000  0.000  0.000  0.000
       0.000  0.000  1.000  0.000  0.000
       0.000  0.000  0.000  1.000  0.000
       0.000  0.000  0.000  0.000  1.000
     occupation matrix ns (before diag.):
       0.600  0.000  0.000  0.000  0.000
       0.000  0.600  0.000  0.000  0.000
       0.000  0.000  0.600  0.000  0.000
       0.000  0.000  0.000  0.600  0.000
       0.000  0.000  0.000  0.000  0.600
     --------------------- ATOM   37 ----------------------
     Tr[ns] (up, down, total) =   5.00000  3.00000  8.00000
     Atomic magnetic moment =   2.00000
     SPIN  1
     eigenvalues:
       1.000  1.000  1.000  1.000  1.000
     eigenvectors (columns):
       1.000  0.000  0.000  0.000  0.000
       0.000  1.000  0.000  0.000  0.000
       0.000  0.000  1.000  0.000  0.000
       0.000  0.000  0.000  1.000  0.000
       0.000  0.000  0.000  0.000  1.000
     occupation matrix ns (before diag.):
       1.000  0.000  0.000  0.000  0.000
       0.000  1.000  0.000  0.000  0.000
       0.000  0.000  1.000  0.000  0.000
       0.000  0.000  0.000  1.000  0.000
       0.000  0.000  0.000  0.000  1.000
     SPIN  2
     eigenvalues:
       0.600  0.600  0.600  0.600  0.600
     eigenvectors (columns):
       1.000  0.000  0.000  0.000  0.000
       0.000  1.000  0.000  0.000  0.000
       0.000  0.000  1.000  0.000  0.000
       0.000  0.000  0.000  1.000  0.000
       0.000  0.000  0.000  0.000  1.000
     occupation matrix ns (before diag.):
       0.600  0.000  0.000  0.000  0.000
       0.000  0.600  0.000  0.000  0.000
       0.000  0.000  0.600  0.000  0.000
       0.000  0.000  0.000  0.600  0.000
       0.000  0.000  0.000  0.000  0.600
     --------------------- ATOM   38 ----------------------
     Tr[ns] (up, down, total) =   5.00000  3.00000  8.00000
     Atomic magnetic moment =   2.00000
     SPIN  1
     eigenvalues:
       1.000  1.000  1.000  1.000  1.000
     eigenvectors (columns):
       1.000  0.000  0.000  0.000  0.000
       0.000  1.000  0.000  0.000  0.000
       0.000  0.000  1.000  0.000  0.000
       0.000  0.000  0.000  1.000  0.000
       0.000  0.000  0.000  0.000  1.000
     occupation matrix ns (before diag.):
       1.000  0.000  0.000  0.000  0.000
       0.000  1.000  0.000  0.000  0.000
       0.000  0.000  1.000  0.000  0.000
       0.000  0.000  0.000  1.000  0.000
       0.000  0.000  0.000  0.000  1.000
     SPIN  2
     eigenvalues:
       0.600  0.600  0.600  0.600  0.600
     eigenvectors (columns):
       1.000  0.000  0.000  0.000  0.000
       0.000  1.000  0.000  0.000  0.000
       0.000  0.000  1.000  0.000  0.000
       0.000  0.000  0.000  1.000  0.000
       0.000  0.000  0.000  0.000  1.000
     occupation matrix ns (before diag.):
       0.600  0.000  0.000  0.000  0.000
       0.000  0.600  0.000  0.000  0.000
       0.000  0.000  0.600  0.000  0.000
       0.000  0.000  0.000  0.600  0.000
       0.000  0.000  0.000  0.000  0.600
     --------------------- ATOM   39 ----------------------
     Tr[ns] (up, down, total) =   5.00000  3.00000  8.00000
     Atomic magnetic moment =   2.00000
     SPIN  1
     eigenvalues:
       1.000  1.000  1.000  1.000  1.000
     eigenvectors (columns):
       1.000  0.000  0.000  0.000  0.000
       0.000  1.000  0.000  0.000  0.000
       0.000  0.000  1.000  0.000  0.000
       0.000  0.000  0.000  1.000  0.000
       0.000  0.000  0.000  0.000  1.000
     occupation matrix ns (before diag.):
       1.000  0.000  0.000  0.000  0.000
       0.000  1.000  0.000  0.000  0.000
       0.000  0.000  1.000  0.000  0.000
       0.000  0.000  0.000  1.000  0.000
       0.000  0.000  0.000  0.000  1.000
     SPIN  2
     eigenvalues:
       0.600  0.600  0.600  0.600  0.600
     eigenvectors (columns):
       1.000  0.000  0.000  0.000  0.000
       0.000  1.000  0.000  0.000  0.000
       0.000  0.000  1.000  0.000  0.000
       0.000  0.000  0.000  1.000  0.000
       0.000  0.000  0.000  0.000  1.000
     occupation matrix ns (before diag.):
       0.600  0.000  0.000  0.000  0.000
       0.000  0.600  0.000  0.000  0.000
       0.000  0.000  0.600  0.000  0.000
       0.000  0.000  0.000  0.600  0.000
       0.000  0.000  0.000  0.000  0.600
     --------------------- ATOM   40 ----------------------
     Tr[ns] (up, down, total) =   5.00000  3.00000  8.00000
     Atomic magnetic moment =   2.00000
     SPIN  1
     eigenvalues:
       1.000  1.000  1.000  1.000  1.000
     eigenvectors (columns):
       1.000  0.000  0.000  0.000  0.000
       0.000  1.000  0.000  0.000  0.000
       0.000  0.000  1.000  0.000  0.000
       0.000  0.000  0.000  1.000  0.000
       0.000  0.000  0.000  0.000  1.000
     occupation matrix ns (before diag.):
       1.000  0.000  0.000  0.000  0.000
       0.000  1.000  0.000  0.000  0.000
       0.000  0.000  1.000  0.000  0.000
       0.000  0.000  0.000  1.000  0.000
       0.000  0.000  0.000  0.000  1.000
     SPIN  2
     eigenvalues:
       0.600  0.600  0.600  0.600  0.600
     eigenvectors (columns):
       1.000  0.000  0.000  0.000  0.000
       0.000  1.000  0.000  0.000  0.000
       0.000  0.000  1.000  0.000  0.000
       0.000  0.000  0.000  1.000  0.000
       0.000  0.000  0.000  0.000  1.000
     occupation matrix ns (before diag.):
       0.600  0.000  0.000  0.000  0.000
       0.000  0.600  0.000  0.000  0.000
       0.000  0.000  0.600  0.000  0.000
       0.000  0.000  0.000  0.600  0.000
       0.000  0.000  0.000  0.000  0.600
     --------------------- ATOM   41 ----------------------
     Tr[ns] (up, down, total) =   5.00000  3.00000  8.00000
     Atomic magnetic moment =   2.00000
     SPIN  1
     eigenvalues:
       1.000  1.000  1.000  1.000  1.000
     eigenvectors (columns):
       1.000  0.000  0.000  0.000  0.000
       0.000  1.000  0.000  0.000  0.000
       0.000  0.000  1.000  0.000  0.000
       0.000  0.000  0.000  1.000  0.000
       0.000  0.000  0.000  0.000  1.000
     occupation matrix ns (before diag.):
       1.000  0.000  0.000  0.000  0.000
       0.000  1.000  0.000  0.000  0.000
       0.000  0.000  1.000  0.000  0.000
       0.000  0.000  0.000  1.000  0.000
       0.000  0.000  0.000  0.000  1.000
     SPIN  2
     eigenvalues:
       0.600  0.600  0.600  0.600  0.600
     eigenvectors (columns):
       1.000  0.000  0.000  0.000  0.000
       0.000  1.000  0.000  0.000  0.000
       0.000  0.000  1.000  0.000  0.000
       0.000  0.000  0.000  1.000  0.000
       0.000  0.000  0.000  0.000  1.000
     occupation matrix ns (before diag.):
       0.600  0.000  0.000  0.000  0.000
       0.000  0.600  0.000  0.000  0.000
       0.000  0.000  0.600  0.000  0.000
       0.000  0.000  0.000  0.600  0.000
       0.000  0.000  0.000  0.000  0.600
     --------------------- ATOM   42 ----------------------
     Tr[ns] (up, down, total) =   5.00000  3.00000  8.00000
     Atomic magnetic moment =   2.00000
     SPIN  1
     eigenvalues:
       1.000  1.000  1.000  1.000  1.000
     eigenvectors (columns):
       1.000  0.000  0.000  0.000  0.000
       0.000  1.000  0.000  0.000  0.000
       0.000  0.000  1.000  0.000  0.000
       0.000  0.000  0.000  1.000  0.000
       0.000  0.000  0.000  0.000  1.000
     occupation matrix ns (before diag.):
       1.000  0.000  0.000  0.000  0.000
       0.000  1.000  0.000  0.000  0.000
       0.000  0.000  1.000  0.000  0.000
       0.000  0.000  0.000  1.000  0.000
       0.000  0.000  0.000  0.000  1.000
     SPIN  2
     eigenvalues:
       0.600  0.600  0.600  0.600  0.600
     eigenvectors (columns):
       1.000  0.000  0.000  0.000  0.000
       0.000  1.000  0.000  0.000  0.000
       0.000  0.000  1.000  0.000  0.000
       0.000  0.000  0.000  1.000  0.000
       0.000  0.000  0.000  0.000  1.000
     occupation matrix ns (before diag.):
       0.600  0.000  0.000  0.000  0.000
       0.000  0.600  0.000  0.000  0.000
       0.000  0.000  0.600  0.000  0.000
       0.000  0.000  0.000  0.600  0.000
       0.000  0.000  0.000  0.000  0.600
     --------------------- ATOM   43 ----------------------
     Tr[ns] (up, down, total) =   5.00000  3.00000  8.00000
     Atomic magnetic moment =   2.00000
     SPIN  1
     eigenvalues:
       1.000  1.000  1.000  1.000  1.000
     eigenvectors (columns):
       1.000  0.000  0.000  0.000  0.000
       0.000  1.000  0.000  0.000  0.000
       0.000  0.000  1.000  0.000  0.000
       0.000  0.000  0.000  1.000  0.000
       0.000  0.000  0.000  0.000  1.000
     occupation matrix ns (before diag.):
       1.000  0.000  0.000  0.000  0.000
       0.000  1.000  0.000  0.000  0.000
       0.000  0.000  1.000  0.000  0.000
       0.000  0.000  0.000  1.000  0.000
       0.000  0.000  0.000  0.000  1.000
     SPIN  2
     eigenvalues:
       0.600  0.600  0.600  0.600  0.600
     eigenvectors (columns):
       1.000  0.000  0.000  0.000  0.000
       0.000  1.000  0.000  0.000  0.000
       0.000  0.000  1.000  0.000  0.000
       0.000  0.000  0.000  1.000  0.000
       0.000  0.000  0.000  0.000  1.000
     occupation matrix ns (before diag.):
       0.600  0.000  0.000  0.000  0.000
       0.000  0.600  0.000  0.000  0.000
       0.000  0.000  0.600  0.000  0.000
       0.000  0.000  0.000  0.600  0.000
       0.000  0.000  0.000  0.000  0.600
     --------------------- ATOM   44 ----------------------
     Tr[ns] (up, down, total) =   5.00000  3.00000  8.00000
     Atomic magnetic moment =   2.00000
     SPIN  1
     eigenvalues:
       1.000  1.000  1.000  1.000  1.000
     eigenvectors (columns):
       1.000  0.000  0.000  0.000  0.000
       0.000  1.000  0.000  0.000  0.000
       0.000  0.000  1.000  0.000  0.000
       0.000  0.000  0.000  1.000  0.000
       0.000  0.000  0.000  0.000  1.000
     occupation matrix ns (before diag.):
       1.000  0.000  0.000  0.000  0.000
       0.000  1.000  0.000  0.000  0.000
       0.000  0.000  1.000  0.000  0.000
       0.000  0.000  0.000  1.000  0.000
       0.000  0.000  0.000  0.000  1.000
     SPIN  2
     eigenvalues:
       0.600  0.600  0.600  0.600  0.600
     eigenvectors (columns):
       1.000  0.000  0.000  0.000  0.000
       0.000  1.000  0.000  0.000  0.000
       0.000  0.000  1.000  0.000  0.000
       0.000  0.000  0.000  1.000  0.000
       0.000  0.000  0.000  0.000  1.000
     occupation matrix ns (before diag.):
       0.600  0.000  0.000  0.000  0.000
       0.000  0.600  0.000  0.000  0.000
       0.000  0.000  0.600  0.000  0.000
       0.000  0.000  0.000  0.600  0.000
       0.000  0.000  0.000  0.000  0.600
     --------------------- ATOM   45 ----------------------
     Tr[ns] (up, down, total) =   5.00000  3.00000  8.00000
     Atomic magnetic moment =   2.00000
     SPIN  1
     eigenvalues:
       1.000  1.000  1.000  1.000  1.000
     eigenvectors (columns):
       1.000  0.000  0.000  0.000  0.000
       0.000  1.000  0.000  0.000  0.000
       0.000  0.000  1.000  0.000  0.000
       0.000  0.000  0.000  1.000  0.000
       0.000  0.000  0.000  0.000  1.000
     occupation matrix ns (before diag.):
       1.000  0.000  0.000  0.000  0.000
       0.000  1.000  0.000  0.000  0.000
       0.000  0.000  1.000  0.000  0.000
       0.000  0.000  0.000  1.000  0.000
       0.000  0.000  0.000  0.000  1.000
     SPIN  2
     eigenvalues:
       0.600  0.600  0.600  0.600  0.600
     eigenvectors (columns):
       1.000  0.000  0.000  0.000  0.000
       0.000  1.000  0.000  0.000  0.000
       0.000  0.000  1.000  0.000  0.000
       0.000  0.000  0.000  1.000  0.000
       0.000  0.000  0.000  0.000  1.000
     occupation matrix ns (before diag.):
       0.600  0.000  0.000  0.000  0.000
       0.000  0.600  0.000  0.000  0.000
       0.000  0.000  0.600  0.000  0.000
       0.000  0.000  0.000  0.600  0.000
       0.000  0.000  0.000  0.000  0.600
     --------------------- ATOM   46 ----------------------
     Tr[ns] (up, down, total) =   5.00000  3.00000  8.00000
     Atomic magnetic moment =   2.00000
     SPIN  1
     eigenvalues:
       1.000  1.000  1.000  1.000  1.000
     eigenvectors (columns):
       1.000  0.000  0.000  0.000  0.000
       0.000  1.000  0.000  0.000  0.000
       0.000  0.000  1.000  0.000  0.000
       0.000  0.000  0.000  1.000  0.000
       0.000  0.000  0.000  0.000  1.000
     occupation matrix ns (before diag.):
       1.000  0.000  0.000  0.000  0.000
       0.000  1.000  0.000  0.000  0.000
       0.000  0.000  1.000  0.000  0.000
       0.000  0.000  0.000  1.000  0.000
       0.000  0.000  0.000  0.000  1.000
     SPIN  2
     eigenvalues:
       0.600  0.600  0.600  0.600  0.600
     eigenvectors (columns):
       1.000  0.000  0.000  0.000  0.000
       0.000  1.000  0.000  0.000  0.000
       0.000  0.000  1.000  0.000  0.000
       0.000  0.000  0.000  1.000  0.000
       0.000  0.000  0.000  0.000  1.000
     occupation matrix ns (before diag.):
       0.600  0.000  0.000  0.000  0.000
       0.000  0.600  0.000  0.000  0.000
       0.000  0.000  0.600  0.000  0.000
       0.000  0.000  0.000  0.600  0.000
       0.000  0.000  0.000  0.000  0.600
     --------------------- ATOM   47 ----------------------
     Tr[ns] (up, down, total) =   5.00000  3.00000  8.00000
     Atomic magnetic moment =   2.00000
     SPIN  1
     eigenvalues:
       1.000  1.000  1.000  1.000  1.000
     eigenvectors (columns):
       1.000  0.000  0.000  0.000  0.000
       0.000  1.000  0.000  0.000  0.000
       0.000  0.000  1.000  0.000  0.000
       0.000  0.000  0.000  1.000  0.000
       0.000  0.000  0.000  0.000  1.000
     occupation matrix ns (before diag.):
       1.000  0.000  0.000  0.000  0.000
       0.000  1.000  0.000  0.000  0.000
       0.000  0.000  1.000  0.000  0.000
       0.000  0.000  0.000  1.000  0.000
       0.000  0.000  0.000  0.000  1.000
     SPIN  2
     eigenvalues:
       0.600  0.600  0.600  0.600  0.600
     eigenvectors (columns):
       1.000  0.000  0.000  0.000  0.000
       0.000  1.000  0.000  0.000  0.000
       0.000  0.000  1.000  0.000  0.000
       0.000  0.000  0.000  1.000  0.000
       0.000  0.000  0.000  0.000  1.000
     occupation matrix ns (before diag.):
       0.600  0.000  0.000  0.000  0.000
       0.000  0.600  0.000  0.000  0.000
       0.000  0.000  0.600  0.000  0.000
       0.000  0.000  0.000  0.600  0.000
       0.000  0.000  0.000  0.000  0.600
     --------------------- ATOM   48 ----------------------
     Tr[ns] (up, down, total) =   5.00000  3.00000  8.00000
     Atomic magnetic moment =   2.00000
     SPIN  1
     eigenvalues:
       1.000  1.000  1.000  1.000  1.000
     eigenvectors (columns):
       1.000  0.000  0.000  0.000  0.000
       0.000  1.000  0.000  0.000  0.000
       0.000  0.000  1.000  0.000  0.000
       0.000  0.000  0.000  1.000  0.000
       0.000  0.000  0.000  0.000  1.000
     occupation matrix ns (before diag.):
       1.000  0.000  0.000  0.000  0.000
       0.000  1.000  0.000  0.000  0.000
       0.000  0.000  1.000  0.000  0.000
       0.000  0.000  0.000  1.000  0.000
       0.000  0.000  0.000  0.000  1.000
     SPIN  2
     eigenvalues:
       0.600  0.600  0.600  0.600  0.600
     eigenvectors (columns):
       1.000  0.000  0.000  0.000  0.000
       0.000  1.000  0.000  0.000  0.000
       0.000  0.000  1.000  0.000  0.000
       0.000  0.000  0.000  1.000  0.000
       0.000  0.000  0.000  0.000  1.000
     occupation matrix ns (before diag.):
       0.600  0.000  0.000  0.000  0.000
       0.000  0.600  0.000  0.000  0.000
       0.000  0.000  0.600  0.000  0.000
       0.000  0.000  0.000  0.600  0.000
       0.000  0.000  0.000  0.000  0.600
     --------------------- ATOM   49 ----------------------
     Tr[ns] (up, down, total) =   3.00000  5.00000  8.00000
     Atomic magnetic moment =  -2.00000
     SPIN  1
     eigenvalues:
       0.600  0.600  0.600  0.600  0.600
     eigenvectors (columns):
       1.000  0.000  0.000  0.000  0.000
       0.000  1.000  0.000  0.000  0.000
       0.000  0.000  1.000  0.000  0.000
       0.000  0.000  0.000  1.000  0.000
       0.000  0.000  0.000  0.000  1.000
     occupation matrix ns (before diag.):
       0.600  0.000  0.000  0.000  0.000
       0.000  0.600  0.000  0.000  0.000
       0.000  0.000  0.600  0.000  0.000
       0.000  0.000  0.000  0.600  0.000
       0.000  0.000  0.000  0.000  0.600
     SPIN  2
     eigenvalues:
       1.000  1.000  1.000  1.000  1.000
     eigenvectors (columns):
       1.000  0.000  0.000  0.000  0.000
       0.000  1.000  0.000  0.000  0.000
       0.000  0.000  1.000  0.000  0.000
       0.000  0.000  0.000  1.000  0.000
       0.000  0.000  0.000  0.000  1.000
     occupation matrix ns (before diag.):
       1.000  0.000  0.000  0.000  0.000
       0.000  1.000  0.000  0.000  0.000
       0.000  0.000  1.000  0.000  0.000
       0.000  0.000  0.000  1.000  0.000
       0.000  0.000  0.000  0.000  1.000
     --------------------- ATOM   50 ----------------------
     Tr[ns] (up, down, total) =   3.00000  5.00000  8.00000
     Atomic magnetic moment =  -2.00000
     SPIN  1
     eigenvalues:
       0.600  0.600  0.600  0.600  0.600
     eigenvectors (columns):
       1.000  0.000  0.000  0.000  0.000
       0.000  1.000  0.000  0.000  0.000
       0.000  0.000  1.000  0.000  0.000
       0.000  0.000  0.000  1.000  0.000
       0.000  0.000  0.000  0.000  1.000
     occupation matrix ns (before diag.):
       0.600  0.000  0.000  0.000  0.000
       0.000  0.600  0.000  0.000  0.000
       0.000  0.000  0.600  0.000  0.000
       0.000  0.000  0.000  0.600  0.000
       0.000  0.000  0.000  0.000  0.600
     SPIN  2
     eigenvalues:
       1.000  1.000  1.000  1.000  1.000
     eigenvectors (columns):
       1.000  0.000  0.000  0.000  0.000
       0.000  1.000  0.000  0.000  0.000
       0.000  0.000  1.000  0.000  0.000
       0.000  0.000  0.000  1.000  0.000
       0.000  0.000  0.000  0.000  1.000
     occupation matrix ns (before diag.):
       1.000  0.000  0.000  0.000  0.000
       0.000  1.000  0.000  0.000  0.000
       0.000  0.000  1.000  0.000  0.000
       0.000  0.000  0.000  1.000  0.000
       0.000  0.000  0.000  0.000  1.000
     --------------------- ATOM   51 ----------------------
     Tr[ns] (up, down, total) =   3.00000  5.00000  8.00000
     Atomic magnetic moment =  -2.00000
     SPIN  1
     eigenvalues:
       0.600  0.600  0.600  0.600  0.600
     eigenvectors (columns):
       1.000  0.000  0.000  0.000  0.000
       0.000  1.000  0.000  0.000  0.000
       0.000  0.000  1.000  0.000  0.000
       0.000  0.000  0.000  1.000  0.000
       0.000  0.000  0.000  0.000  1.000
     occupation matrix ns (before diag.):
       0.600  0.000  0.000  0.000  0.000
       0.000  0.600  0.000  0.000  0.000
       0.000  0.000  0.600  0.000  0.000
       0.000  0.000  0.000  0.600  0.000
       0.000  0.000  0.000  0.000  0.600
     SPIN  2
     eigenvalues:
       1.000  1.000  1.000  1.000  1.000
     eigenvectors (columns):
       1.000  0.000  0.000  0.000  0.000
       0.000  1.000  0.000  0.000  0.000
       0.000  0.000  1.000  0.000  0.000
       0.000  0.000  0.000  1.000  0.000
       0.000  0.000  0.000  0.000  1.000
     occupation matrix ns (before diag.):
       1.000  0.000  0.000  0.000  0.000
       0.000  1.000  0.000  0.000  0.000
       0.000  0.000  1.000  0.000  0.000
       0.000  0.000  0.000  1.000  0.000
       0.000  0.000  0.000  0.000  1.000
     --------------------- ATOM   52 ----------------------
     Tr[ns] (up, down, total) =   3.00000  5.00000  8.00000
     Atomic magnetic moment =  -2.00000
     SPIN  1
     eigenvalues:
       0.600  0.600  0.600  0.600  0.600
     eigenvectors (columns):
       1.000  0.000  0.000  0.000  0.000
       0.000  1.000  0.000  0.000  0.000
       0.000  0.000  1.000  0.000  0.000
       0.000  0.000  0.000  1.000  0.000
       0.000  0.000  0.000  0.000  1.000
     occupation matrix ns (before diag.):
       0.600  0.000  0.000  0.000  0.000
       0.000  0.600  0.000  0.000  0.000
       0.000  0.000  0.600  0.000  0.000
       0.000  0.000  0.000  0.600  0.000
       0.000  0.000  0.000  0.000  0.600
     SPIN  2
     eigenvalues:
       1.000  1.000  1.000  1.000  1.000
     eigenvectors (columns):
       1.000  0.000  0.000  0.000  0.000
       0.000  1.000  0.000  0.000  0.000
       0.000  0.000  1.000  0.000  0.000
       0.000  0.000  0.000  1.000  0.000
       0.000  0.000  0.000  0.000  1.000
     occupation matrix ns (before diag.):
       1.000  0.000  0.000  0.000  0.000
       0.000  1.000  0.000  0.000  0.000
       0.000  0.000  1.000  0.000  0.000
       0.000  0.000  0.000  1.000  0.000
       0.000  0.000  0.000  0.000  1.000
     --------------------- ATOM   53 ----------------------
     Tr[ns] (up, down, total) =   3.00000  5.00000  8.00000
     Atomic magnetic moment =  -2.00000
     SPIN  1
     eigenvalues:
       0.600  0.600  0.600  0.600  0.600
     eigenvectors (columns):
       1.000  0.000  0.000  0.000  0.000
       0.000  1.000  0.000  0.000  0.000
       0.000  0.000  1.000  0.000  0.000
       0.000  0.000  0.000  1.000  0.000
       0.000  0.000  0.000  0.000  1.000
     occupation matrix ns (before diag.):
       0.600  0.000  0.000  0.000  0.000
       0.000  0.600  0.000  0.000  0.000
       0.000  0.000  0.600  0.000  0.000
       0.000  0.000  0.000  0.600  0.000
       0.000  0.000  0.000  0.000  0.600
     SPIN  2
     eigenvalues:
       1.000  1.000  1.000  1.000  1.000
     eigenvectors (columns):
       1.000  0.000  0.000  0.000  0.000
       0.000  1.000  0.000  0.000  0.000
       0.000  0.000  1.000  0.000  0.000
       0.000  0.000  0.000  1.000  0.000
       0.000  0.000  0.000  0.000  1.000
     occupation matrix ns (before diag.):
       1.000  0.000  0.000  0.000  0.000
       0.000  1.000  0.000  0.000  0.000
       0.000  0.000  1.000  0.000  0.000
       0.000  0.000  0.000  1.000  0.000
       0.000  0.000  0.000  0.000  1.000
     --------------------- ATOM   54 ----------------------
     Tr[ns] (up, down, total) =   3.00000  5.00000  8.00000
     Atomic magnetic moment =  -2.00000
     SPIN  1
     eigenvalues:
       0.600  0.600  0.600  0.600  0.600
     eigenvectors (columns):
       1.000  0.000  0.000  0.000  0.000
       0.000  1.000  0.000  0.000  0.000
       0.000  0.000  1.000  0.000  0.000
       0.000  0.000  0.000  1.000  0.000
       0.000  0.000  0.000  0.000  1.000
     occupation matrix ns (before diag.):
       0.600  0.000  0.000  0.000  0.000
       0.000  0.600  0.000  0.000  0.000
       0.000  0.000  0.600  0.000  0.000
       0.000  0.000  0.000  0.600  0.000
       0.000  0.000  0.000  0.000  0.600
     SPIN  2
     eigenvalues:
       1.000  1.000  1.000  1.000  1.000
     eigenvectors (columns):
       1.000  0.000  0.000  0.000  0.000
       0.000  1.000  0.000  0.000  0.000
       0.000  0.000  1.000  0.000  0.000
       0.000  0.000  0.000  1.000  0.000
       0.000  0.000  0.000  0.000  1.000
     occupation matrix ns (before diag.):
       1.000  0.000  0.000  0.000  0.000
       0.000  1.000  0.000  0.000  0.000
       0.000  0.000  1.000  0.000  0.000
       0.000  0.000  0.000  1.000  0.000
       0.000  0.000  0.000  0.000  1.000
     --------------------- ATOM   55 ----------------------
     Tr[ns] (up, down, total) =   3.00000  5.00000  8.00000
     Atomic magnetic moment =  -2.00000
     SPIN  1
     eigenvalues:
       0.600  0.600  0.600  0.600  0.600
     eigenvectors (columns):
       1.000  0.000  0.000  0.000  0.000
       0.000  1.000  0.000  0.000  0.000
       0.000  0.000  1.000  0.000  0.000
       0.000  0.000  0.000  1.000  0.000
       0.000  0.000  0.000  0.000  1.000
     occupation matrix ns (before diag.):
       0.600  0.000  0.000  0.000  0.000
       0.000  0.600  0.000  0.000  0.000
       0.000  0.000  0.600  0.000  0.000
       0.000  0.000  0.000  0.600  0.000
       0.000  0.000  0.000  0.000  0.600
     SPIN  2
     eigenvalues:
       1.000  1.000  1.000  1.000  1.000
     eigenvectors (columns):
       1.000  0.000  0.000  0.000  0.000
       0.000  1.000  0.000  0.000  0.000
       0.000  0.000  1.000  0.000  0.000
       0.000  0.000  0.000  1.000  0.000
       0.000  0.000  0.000  0.000  1.000
     occupation matrix ns (before diag.):
       1.000  0.000  0.000  0.000  0.000
       0.000  1.000  0.000  0.000  0.000
       0.000  0.000  1.000  0.000  0.000
       0.000  0.000  0.000  1.000  0.000
       0.000  0.000  0.000  0.000  1.000
     --------------------- ATOM   56 ----------------------
     Tr[ns] (up, down, total) =   3.00000  5.00000  8.00000
     Atomic magnetic moment =  -2.00000
     SPIN  1
     eigenvalues:
       0.600  0.600  0.600  0.600  0.600
     eigenvectors (columns):
       1.000  0.000  0.000  0.000  0.000
       0.000  1.000  0.000  0.000  0.000
       0.000  0.000  1.000  0.000  0.000
       0.000  0.000  0.000  1.000  0.000
       0.000  0.000  0.000  0.000  1.000
     occupation matrix ns (before diag.):
       0.600  0.000  0.000  0.000  0.000
       0.000  0.600  0.000  0.000  0.000
       0.000  0.000  0.600  0.000  0.000
       0.000  0.000  0.000  0.600  0.000
       0.000  0.000  0.000  0.000  0.600
     SPIN  2
     eigenvalues:
       1.000  1.000  1.000  1.000  1.000
     eigenvectors (columns):
       1.000  0.000  0.000  0.000  0.000
       0.000  1.000  0.000  0.000  0.000
       0.000  0.000  1.000  0.000  0.000
       0.000  0.000  0.000  1.000  0.000
       0.000  0.000  0.000  0.000  1.000
     occupation matrix ns (before diag.):
       1.000  0.000  0.000  0.000  0.000
       0.000  1.000  0.000  0.000  0.000
       0.000  0.000  1.000  0.000  0.000
       0.000  0.000  0.000  1.000  0.000
       0.000  0.000  0.000  0.000  1.000
     --------------------- ATOM   57 ----------------------
     Tr[ns] (up, down, total) =   3.00000  5.00000  8.00000
     Atomic magnetic moment =  -2.00000
     SPIN  1
     eigenvalues:
       0.600  0.600  0.600  0.600  0.600
     eigenvectors (columns):
       1.000  0.000  0.000  0.000  0.000
       0.000  1.000  0.000  0.000  0.000
       0.000  0.000  1.000  0.000  0.000
       0.000  0.000  0.000  1.000  0.000
       0.000  0.000  0.000  0.000  1.000
     occupation matrix ns (before diag.):
       0.600  0.000  0.000  0.000  0.000
       0.000  0.600  0.000  0.000  0.000
       0.000  0.000  0.600  0.000  0.000
       0.000  0.000  0.000  0.600  0.000
       0.000  0.000  0.000  0.000  0.600
     SPIN  2
     eigenvalues:
       1.000  1.000  1.000  1.000  1.000
     eigenvectors (columns):
       1.000  0.000  0.000  0.000  0.000
       0.000  1.000  0.000  0.000  0.000
       0.000  0.000  1.000  0.000  0.000
       0.000  0.000  0.000  1.000  0.000
       0.000  0.000  0.000  0.000  1.000
     occupation matrix ns (before diag.):
       1.000  0.000  0.000  0.000  0.000
       0.000  1.000  0.000  0.000  0.000
       0.000  0.000  1.000  0.000  0.000
       0.000  0.000  0.000  1.000  0.000
       0.000  0.000  0.000  0.000  1.000
     --------------------- ATOM   58 ----------------------
     Tr[ns] (up, down, total) =   3.00000  5.00000  8.00000
     Atomic magnetic moment =  -2.00000
     SPIN  1
     eigenvalues:
       0.600  0.600  0.600  0.600  0.600
     eigenvectors (columns):
       1.000  0.000  0.000  0.000  0.000
       0.000  1.000  0.000  0.000  0.000
       0.000  0.000  1.000  0.000  0.000
       0.000  0.000  0.000  1.000  0.000
       0.000  0.000  0.000  0.000  1.000
     occupation matrix ns (before diag.):
       0.600  0.000  0.000  0.000  0.000
       0.000  0.600  0.000  0.000  0.000
       0.000  0.000  0.600  0.000  0.000
       0.000  0.000  0.000  0.600  0.000
       0.000  0.000  0.000  0.000  0.600
     SPIN  2
     eigenvalues:
       1.000  1.000  1.000  1.000  1.000
     eigenvectors (columns):
       1.000  0.000  0.000  0.000  0.000
       0.000  1.000  0.000  0.000  0.000
       0.000  0.000  1.000  0.000  0.000
       0.000  0.000  0.000  1.000  0.000
       0.000  0.000  0.000  0.000  1.000
     occupation matrix ns (before diag.):
       1.000  0.000  0.000  0.000  0.000
       0.000  1.000  0.000  0.000  0.000
       0.000  0.000  1.000  0.000  0.000
       0.000  0.000  0.000  1.000  0.000
       0.000  0.000  0.000  0.000  1.000
     --------------------- ATOM   59 ----------------------
     Tr[ns] (up, down, total) =   3.00000  5.00000  8.00000
     Atomic magnetic moment =  -2.00000
     SPIN  1
     eigenvalues:
       0.600  0.600  0.600  0.600  0.600
     eigenvectors (columns):
       1.000  0.000  0.000  0.000  0.000
       0.000  1.000  0.000  0.000  0.000
       0.000  0.000  1.000  0.000  0.000
       0.000  0.000  0.000  1.000  0.000
       0.000  0.000  0.000  0.000  1.000
     occupation matrix ns (before diag.):
       0.600  0.000  0.000  0.000  0.000
       0.000  0.600  0.000  0.000  0.000
       0.000  0.000  0.600  0.000  0.000
       0.000  0.000  0.000  0.600  0.000
       0.000  0.000  0.000  0.000  0.600
     SPIN  2
     eigenvalues:
       1.000  1.000  1.000  1.000  1.000
     eigenvectors (columns):
       1.000  0.000  0.000  0.000  0.000
       0.000  1.000  0.000  0.000  0.000
       0.000  0.000  1.000  0.000  0.000
       0.000  0.000  0.000  1.000  0.000
       0.000  0.000  0.000  0.000  1.000
     occupation matrix ns (before diag.):
       1.000  0.000  0.000  0.000  0.000
       0.000  1.000  0.000  0.000  0.000
       0.000  0.000  1.000  0.000  0.000
       0.000  0.000  0.000  1.000  0.000
       0.000  0.000  0.000  0.000  1.000
     --------------------- ATOM   60 ----------------------
     Tr[ns] (up, down, total) =   3.00000  5.00000  8.00000
     Atomic magnetic moment =  -2.00000
     SPIN  1
     eigenvalues:
       0.600  0.600  0.600  0.600  0.600
     eigenvectors (columns):
       1.000  0.000  0.000  0.000  0.000
       0.000  1.000  0.000  0.000  0.000
       0.000  0.000  1.000  0.000  0.000
       0.000  0.000  0.000  1.000  0.000
       0.000  0.000  0.000  0.000  1.000
     occupation matrix ns (before diag.):
       0.600  0.000  0.000  0.000  0.000
       0.000  0.600  0.000  0.000  0.000
       0.000  0.000  0.600  0.000  0.000
       0.000  0.000  0.000  0.600  0.000
       0.000  0.000  0.000  0.000  0.600
     SPIN  2
     eigenvalues:
       1.000  1.000  1.000  1.000  1.000
     eigenvectors (columns):
       1.000  0.000  0.000  0.000  0.000
       0.000  1.000  0.000  0.000  0.000
       0.000  0.000  1.000  0.000  0.000
       0.000  0.000  0.000  1.000  0.000
       0.000  0.000  0.000  0.000  1.000
     occupation matrix ns (before diag.):
       1.000  0.000  0.000  0.000  0.000
       0.000  1.000  0.000  0.000  0.000
       0.000  0.000  1.000  0.000  0.000
       0.000  0.000  0.000  1.000  0.000
       0.000  0.000  0.000  0.000  1.000
     --------------------- ATOM   61 ----------------------
     Tr[ns] (up, down, total) =   3.00000  5.00000  8.00000
     Atomic magnetic moment =  -2.00000
     SPIN  1
     eigenvalues:
       0.600  0.600  0.600  0.600  0.600
     eigenvectors (columns):
       1.000  0.000  0.000  0.000  0.000
       0.000  1.000  0.000  0.000  0.000
       0.000  0.000  1.000  0.000  0.000
       0.000  0.000  0.000  1.000  0.000
       0.000  0.000  0.000  0.000  1.000
     occupation matrix ns (before diag.):
       0.600  0.000  0.000  0.000  0.000
       0.000  0.600  0.000  0.000  0.000
       0.000  0.000  0.600  0.000  0.000
       0.000  0.000  0.000  0.600  0.000
       0.000  0.000  0.000  0.000  0.600
     SPIN  2
     eigenvalues:
       1.000  1.000  1.000  1.000  1.000
     eigenvectors (columns):
       1.000  0.000  0.000  0.000  0.000
       0.000  1.000  0.000  0.000  0.000
       0.000  0.000  1.000  0.000  0.000
       0.000  0.000  0.000  1.000  0.000
       0.000  0.000  0.000  0.000  1.000
     occupation matrix ns (before diag.):
       1.000  0.000  0.000  0.000  0.000
       0.000  1.000  0.000  0.000  0.000
       0.000  0.000  1.000  0.000  0.000
       0.000  0.000  0.000  1.000  0.000
       0.000  0.000  0.000  0.000  1.000
     --------------------- ATOM   62 ----------------------
     Tr[ns] (up, down, total) =   3.00000  5.00000  8.00000
     Atomic magnetic moment =  -2.00000
     SPIN  1
     eigenvalues:
       0.600  0.600  0.600  0.600  0.600
     eigenvectors (columns):
       1.000  0.000  0.000  0.000  0.000
       0.000  1.000  0.000  0.000  0.000
       0.000  0.000  1.000  0.000  0.000
       0.000  0.000  0.000  1.000  0.000
       0.000  0.000  0.000  0.000  1.000
     occupation matrix ns (before diag.):
       0.600  0.000  0.000  0.000  0.000
       0.000  0.600  0.000  0.000  0.000
       0.000  0.000  0.600  0.000  0.000
       0.000  0.000  0.000  0.600  0.000
       0.000  0.000  0.000  0.000  0.600
     SPIN  2
     eigenvalues:
       1.000  1.000  1.000  1.000  1.000
     eigenvectors (columns):
       1.000  0.000  0.000  0.000  0.000
       0.000  1.000  0.000  0.000  0.000
       0.000  0.000  1.000  0.000  0.000
       0.000  0.000  0.000  1.000  0.000
       0.000  0.000  0.000  0.000  1.000
     occupation matrix ns (before diag.):
       1.000  0.000  0.000  0.000  0.000
       0.000  1.000  0.000  0.000  0.000
       0.000  0.000  1.000  0.000  0.000
       0.000  0.000  0.000  1.000  0.000
       0.000  0.000  0.000  0.000  1.000
     --------------------- ATOM   63 ----------------------
     Tr[ns] (up, down, total) =   3.00000  5.00000  8.00000
     Atomic magnetic moment =  -2.00000
     SPIN  1
     eigenvalues:
       0.600  0.600  0.600  0.600  0.600
     eigenvectors (columns):
       1.000  0.000  0.000  0.000  0.000
       0.000  1.000  0.000  0.000  0.000
       0.000  0.000  1.000  0.000  0.000
       0.000  0.000  0.000  1.000  0.000
       0.000  0.000  0.000  0.000  1.000
     occupation matrix ns (before diag.):
       0.600  0.000  0.000  0.000  0.000
       0.000  0.600  0.000  0.000  0.000
       0.000  0.000  0.600  0.000  0.000
       0.000  0.000  0.000  0.600  0.000
       0.000  0.000  0.000  0.000  0.600
     SPIN  2
     eigenvalues:
       1.000  1.000  1.000  1.000  1.000
     eigenvectors (columns):
       1.000  0.000  0.000  0.000  0.000
       0.000  1.000  0.000  0.000  0.000
       0.000  0.000  1.000  0.000  0.000
       0.000  0.000  0.000  1.000  0.000
       0.000  0.000  0.000  0.000  1.000
     occupation matrix ns (before diag.):
       1.000  0.000  0.000  0.000  0.000
       0.000  1.000  0.000  0.000  0.000
       0.000  0.000  1.000  0.000  0.000
       0.000  0.000  0.000  1.000  0.000
       0.000  0.000  0.000  0.000  1.000
     --------------------- ATOM   64 ----------------------
     Tr[ns] (up, down, total) =   3.00000  5.00000  8.00000
     Atomic magnetic moment =  -2.00000
     SPIN  1
     eigenvalues:
       0.600  0.600  0.600  0.600  0.600
     eigenvectors (columns):
       1.000  0.000  0.000  0.000  0.000
       0.000  1.000  0.000  0.000  0.000
       0.000  0.000  1.000  0.000  0.000
       0.000  0.000  0.000  1.000  0.000
       0.000  0.000  0.000  0.000  1.000
     occupation matrix ns (before diag.):
       0.600  0.000  0.000  0.000  0.000
       0.000  0.600  0.000  0.000  0.000
       0.000  0.000  0.600  0.000  0.000
       0.000  0.000  0.000  0.600  0.000
       0.000  0.000  0.000  0.000  0.600
     SPIN  2
     eigenvalues:
       1.000  1.000  1.000  1.000  1.000
     eigenvectors (columns):
       1.000  0.000  0.000  0.000  0.000
       0.000  1.000  0.000  0.000  0.000
       0.000  0.000  1.000  0.000  0.000
       0.000  0.000  0.000  1.000  0.000
       0.000  0.000  0.000  0.000  1.000
     occupation matrix ns (before diag.):
       1.000  0.000  0.000  0.000  0.000
       0.000  1.000  0.000  0.000  0.000
       0.000  0.000  1.000  0.000  0.000
       0.000  0.000  0.000  1.000  0.000
       0.000  0.000  0.000  0.000  1.000

     Number of occupied Hubbard levels =  256.0000
 Atomic wfc used for LDA+U Projector are NOT orthogonalized
     Starting wfcs are  448 randomized atomic wfcs

     total cpu time spent up to now is       22.7 secs

     per-process dynamical memory:   509.0 Mb

     Self-consistent Calculation

     iteration #  1     ecut=   429.67 Ry     beta= 0.25
     Davidson diagonalization with overlap

---- Real-time Memory Report at c_bands before calling an iterative solver
           592 MiB given to the printing process from OS
           497 MiB allocation reported by mallinfo(arena+hblkhd)
        230797 MiB available memory on the node where the printing process lives
------------------
     ethr =  1.00E-02,  avg # of iterations =  9.0

     Hubbard parameters (eV):
     U(  2) =  6.5000
     U(  3) =  6.5000

     ================= HUBBARD OCCUPATIONS ================
     --------------------- ATOM   33 ----------------------
     Tr[ns] (up, down, total) =   4.98863  0.69123  5.67986
     Atomic magnetic moment =   4.29741
     SPIN  1
     eigenvalues:
       0.997  0.997  0.998  0.998  0.998
     eigenvectors (columns):
       0.269  0.954 -0.000 -0.130 -0.027
      -0.105 -0.027  0.577 -0.540  0.603
       0.075 -0.077  0.577 -0.252 -0.769
       0.954 -0.269  0.000 -0.027  0.130
      -0.029 -0.104 -0.577 -0.792 -0.166
     occupation matrix ns (before diag.):
       0.997  0.000  0.000 -0.000  0.000
       0.000  0.998 -0.000  0.000  0.000
       0.000 -0.000  0.998 -0.000  0.000
      -0.000  0.000 -0.000  0.997 -0.000
       0.000  0.000  0.000 -0.000  0.998
     SPIN  2
     eigenvalues:
       0.087  0.087  0.152  0.152  0.213
     eigenvectors (columns):
      -0.504 -0.863 -0.037  0.000  0.000
      -0.030  0.000  0.408 -0.707 -0.577
       0.015 -0.026  0.408  0.707 -0.577
      -0.863  0.504 -0.000  0.037 -0.000
      -0.015 -0.026  0.816  0.000  0.577
     occupation matrix ns (before diag.):
       0.087 -0.001 -0.001 -0.000 -0.002
      -0.001  0.172  0.021 -0.002 -0.021
      -0.001  0.021  0.172  0.002 -0.021
      -0.000 -0.002  0.002  0.087 -0.000
      -0.002 -0.021 -0.021 -0.000  0.172
     --------------------- ATOM   34 ----------------------
     Tr[ns] (up, down, total) =   4.98863  0.69454  5.68317
     Atomic magnetic moment =   4.29410
     SPIN  1
     eigenvalues:
       0.997  0.997  0.998  0.998  0.998
     eigenvectors (columns):
      -0.495  0.858 -0.003 -0.067  0.115
       0.111 -0.000 -0.591 -0.799 -0.000
      -0.053 -0.094 -0.571  0.414  0.701
      -0.858 -0.496 -0.004 -0.116 -0.067
       0.053 -0.094  0.571 -0.414  0.701
     occupation matrix ns (before diag.):
       0.997  0.000  0.000 -0.000  0.000
       0.000  0.998 -0.000  0.000  0.000
       0.000 -0.000  0.998 -0.000  0.000
      -0.000  0.000 -0.000  0.997 -0.000
       0.000  0.000  0.000 -0.000  0.998
     SPIN  2
     eigenvalues:
       0.087  0.087  0.152  0.155  0.213
     eigenvectors (columns):
      -0.865  0.500  0.018  0.033  0.000
       0.000  0.030 -0.815  0.000 -0.579
      -0.027 -0.015  0.409 -0.707 -0.576
       0.500  0.865  0.032 -0.019  0.000
      -0.027  0.015 -0.409 -0.707  0.576
     occupation matrix ns (before diag.):
       0.087 -0.001 -0.001  0.000 -0.002
      -0.001  0.172  0.020 -0.002 -0.020
      -0.001  0.020  0.174  0.002 -0.019
       0.000 -0.002  0.002  0.087  0.000
      -0.002 -0.020 -0.019  0.000  0.174
     --------------------- ATOM   35 ----------------------
     Tr[ns] (up, down, total) =   4.98863  0.68930  5.67792
     Atomic magnetic moment =   4.29933
     SPIN  1
     eigenvalues:
       0.997  0.997  0.998  0.998  0.998
     eigenvectors (columns):
      -0.859 -0.495 -0.001  0.112  0.068
      -0.000  0.114 -0.561  0.000  0.820
       0.092 -0.053 -0.586  0.701 -0.393
       0.496 -0.858 -0.001 -0.065  0.118
       0.092  0.053  0.586  0.701  0.393
     occupation matrix ns (before diag.):
       0.997  0.000  0.000  0.000  0.000
       0.000  0.998 -0.000  0.000  0.000
       0.000 -0.000  0.998 -0.000  0.000
       0.000  0.000 -0.000  0.997  0.000
       0.000  0.000  0.000  0.000  0.998
     SPIN  2
     eigenvalues:
       0.087  0.087  0.150  0.152  0.213
     eigenvectors (columns):
       0.500 -0.865  0.019  0.032  0.000
       0.032 -0.000 -0.816  0.000 -0.577
      -0.015 -0.026  0.407 -0.707 -0.578
       0.865  0.500  0.033 -0.019  0.001
       0.015 -0.026 -0.407 -0.707  0.578
     occupation matrix ns (before diag.):
       0.087 -0.001 -0.001 -0.000 -0.002
      -0.001  0.171  0.021 -0.002 -0.021
      -0.001  0.021  0.172  0.002 -0.020
      -0.000 -0.002  0.002  0.087  0.000
      -0.002 -0.021 -0.020  0.000  0.172
     --------------------- ATOM   36 ----------------------
     Tr[ns] (up, down, total) =   4.98863  0.69454  5.68317
     Atomic magnetic moment =   4.29410
     SPIN  1
     eigenvalues:
       0.997  0.997  0.998  0.998  0.998
     eigenvectors (columns):
      -0.495  0.858 -0.003 -0.067  0.115
      -0.053 -0.094 -0.571  0.414  0.701
       0.111 -0.000 -0.591 -0.799 -0.000
       0.858  0.496  0.004  0.116  0.067
       0.053 -0.094  0.571 -0.414  0.701
     occupation matrix ns (before diag.):
       0.997  0.000  0.000  0.000  0.000
       0.000  0.998 -0.000  0.000  0.000
       0.000 -0.000  0.998 -0.000  0.000
       0.000  0.000 -0.000  0.997  0.000
       0.000  0.000  0.000  0.000  0.998
     SPIN  2
     eigenvalues:
       0.087  0.087  0.152  0.155  0.213
     eigenvectors (columns):
       0.865 -0.500 -0.018 -0.033  0.000
       0.027  0.015 -0.409  0.707 -0.576
      -0.000 -0.030  0.815 -0.000 -0.579
       0.500  0.865  0.032 -0.019 -0.000
       0.027 -0.015  0.409  0.707  0.576
     occupation matrix ns (before diag.):
       0.087 -0.001 -0.001 -0.000 -0.002
      -0.001  0.174  0.020 -0.002 -0.019
      -0.001  0.020  0.172  0.002 -0.020
      -0.000 -0.002  0.002  0.087 -0.000
      -0.002 -0.019 -0.020 -0.000  0.174
     --------------------- ATOM   37 ----------------------
     Tr[ns] (up, down, total) =   4.98864  0.69449  5.68313
     Atomic magnetic moment =   4.29414
     SPIN  1
     eigenvalues:
       0.997  0.997  0.998  0.998  0.998
     eigenvectors (columns):
       0.000  0.991  0.001  0.000 -0.133
      -0.094 -0.054  0.584  0.701 -0.395
       0.094 -0.054  0.584 -0.701 -0.395
       0.991 -0.000  0.000  0.134  0.000
      -0.000 -0.109 -0.564  0.000 -0.818
     occupation matrix ns (before diag.):
       0.997  0.000  0.000 -0.000  0.000
       0.000  0.998 -0.000  0.000  0.000
       0.000 -0.000  0.998 -0.000  0.000
      -0.000  0.000 -0.000  0.997 -0.000
       0.000  0.000  0.000 -0.000  0.998
     SPIN  2
     eigenvalues:
       0.087  0.087  0.152  0.155  0.213
     eigenvectors (columns):
       0.999  0.000 -0.038  0.000 -0.000
       0.015 -0.027  0.410 -0.707 -0.576
       0.015  0.027  0.410  0.707 -0.576
       0.000 -0.999 -0.000  0.038 -0.000
       0.031  0.000  0.814 -0.000  0.580
     occupation matrix ns (before diag.):
       0.087 -0.001 -0.001 -0.000 -0.002
      -0.001  0.174  0.019 -0.002 -0.020
      -0.001  0.019  0.174  0.002 -0.020
      -0.000 -0.002  0.002  0.087 -0.000
      -0.002 -0.020 -0.020 -0.000  0.173
     --------------------- ATOM   38 ----------------------
     Tr[ns] (up, down, total) =   4.98864  0.69449  5.68313
     Atomic magnetic moment =   4.29414
     SPIN  1
     eigenvalues:
       0.997  0.997  0.998  0.998  0.998
     eigenvectors (columns):
       0.858  0.496 -0.001  0.116 -0.066
      -0.094  0.054  0.584  0.701  0.395
       0.000 -0.109  0.564  0.000 -0.818
       0.496 -0.858  0.001  0.067  0.115
      -0.094 -0.054 -0.584  0.701 -0.395
     occupation matrix ns (before diag.):
       0.997  0.000  0.000 -0.000  0.000
       0.000  0.998 -0.000  0.000  0.000
       0.000 -0.000  0.998 -0.000  0.000
      -0.000  0.000 -0.000  0.997  0.000
       0.000  0.000  0.000  0.000  0.998
     SPIN  2
     eigenvalues:
       0.087  0.087  0.152  0.155  0.213
     eigenvectors (columns):
      -0.500  0.865 -0.019 -0.033  0.000
       0.015  0.027 -0.410  0.707 -0.576
      -0.031  0.000  0.814 -0.000 -0.580
       0.865  0.500  0.033 -0.019 -0.000
      -0.015  0.027  0.410  0.707  0.576
     occupation matrix ns (before diag.):
       0.087 -0.001 -0.001  0.000 -0.002
      -0.001  0.174  0.020 -0.002 -0.019
      -0.001  0.020  0.173  0.002 -0.020
       0.000 -0.002  0.002  0.087 -0.000
      -0.002 -0.019 -0.020 -0.000  0.174
     --------------------- ATOM   39 ----------------------
     Tr[ns] (up, down, total) =   4.98863  0.68930  5.67792
     Atomic magnetic moment =   4.29933
     SPIN  1
     eigenvalues:
       0.997  0.997  0.998  0.998  0.998
     eigenvectors (columns):
      -0.859 -0.495 -0.001  0.112  0.068
       0.092 -0.053 -0.586  0.701 -0.393
      -0.000  0.114 -0.561  0.000  0.820
      -0.496  0.858  0.001  0.065 -0.118
       0.092  0.053  0.586  0.701  0.393
     occupation matrix ns (before diag.):
       0.997  0.000  0.000 -0.000  0.000
       0.000  0.998 -0.000  0.000  0.000
       0.000 -0.000  0.998 -0.000  0.000
      -0.000  0.000 -0.000  0.997 -0.000
       0.000  0.000  0.000 -0.000  0.998
     SPIN  2
     eigenvalues:
       0.087  0.087  0.150  0.152  0.213
     eigenvectors (columns):
      -0.500  0.865 -0.019 -0.032  0.000
       0.015  0.026 -0.407  0.707 -0.578
      -0.032  0.000  0.816 -0.000 -0.577
       0.865  0.500  0.033 -0.019 -0.001
      -0.015  0.026  0.407  0.707  0.578
     occupation matrix ns (before diag.):
       0.087 -0.001 -0.001  0.000 -0.002
      -0.001  0.172  0.021 -0.002 -0.020
      -0.001  0.021  0.171  0.002 -0.021
       0.000 -0.002  0.002  0.087 -0.000
      -0.002 -0.020 -0.021 -0.000  0.172
     --------------------- ATOM   40 ----------------------
     Tr[ns] (up, down, total) =   4.98864  0.69449  5.68313
     Atomic magnetic moment =   4.29414
     SPIN  1
     eigenvalues:
       0.997  0.997  0.998  0.998  0.998
     eigenvectors (columns):
       0.858  0.496 -0.001 -0.116  0.066
       0.000 -0.109  0.564 -0.000  0.818
      -0.094  0.054  0.584 -0.701 -0.395
      -0.496  0.858 -0.001  0.067  0.115
      -0.094 -0.054 -0.584 -0.701  0.395
     occupation matrix ns (before diag.):
       0.997  0.000  0.000  0.000  0.000
       0.000  0.998 -0.000  0.000  0.000
       0.000 -0.000  0.998 -0.000  0.000
       0.000  0.000 -0.000  0.997 -0.000
       0.000  0.000  0.000 -0.000  0.998
     SPIN  2
     eigenvalues:
       0.087  0.087  0.152  0.155  0.213
     eigenvectors (columns):
       0.500 -0.865  0.019  0.033  0.000
       0.031 -0.000 -0.814  0.000 -0.580
      -0.015 -0.027  0.410 -0.707 -0.576
       0.865  0.500  0.033 -0.019  0.000
       0.015 -0.027 -0.410 -0.707  0.576
     occupation matrix ns (before diag.):
       0.087 -0.001 -0.001 -0.000 -0.002
      -0.001  0.173  0.020 -0.002 -0.020
      -0.001  0.020  0.174  0.002 -0.019
      -0.000 -0.002  0.002  0.087  0.000
      -0.002 -0.020 -0.019  0.000  0.174
     --------------------- ATOM   41 ----------------------
     Tr[ns] (up, down, total) =   4.98863  0.68930  5.67792
     Atomic magnetic moment =   4.29933
     SPIN  1
     eigenvalues:
       0.997  0.997  0.998  0.998  0.998
     eigenvectors (columns):
       0.000 -0.991  0.002  0.000 -0.136
      -0.092  0.053 -0.586  0.701 -0.393
       0.092  0.053 -0.586 -0.701 -0.393
       0.992  0.000 -0.000  0.129  0.000
      -0.000  0.114  0.561  0.000 -0.820
     occupation matrix ns (before diag.):
       0.997  0.000  0.000 -0.000  0.000
       0.000  0.998 -0.000  0.000  0.000
       0.000 -0.000  0.998 -0.000  0.000
      -0.000  0.000 -0.000  0.997 -0.000
       0.000  0.000  0.000 -0.000  0.998
     SPIN  2
     eigenvalues:
       0.087  0.087  0.150  0.152  0.213
     eigenvectors (columns):
      -0.999 -0.000  0.038  0.000 -0.001
      -0.015  0.026 -0.407 -0.707 -0.578
      -0.015 -0.026 -0.407  0.707 -0.578
      -0.000  0.999  0.000  0.037 -0.000
      -0.032 -0.000 -0.816 -0.000  0.577
     occupation matrix ns (before diag.):
       0.087 -0.001 -0.001 -0.000 -0.002
      -0.001  0.172  0.020 -0.002 -0.021
      -0.001  0.020  0.172  0.002 -0.021
      -0.000 -0.002  0.002  0.087 -0.000
      -0.002 -0.021 -0.021 -0.000  0.171
     --------------------- ATOM   42 ----------------------
     Tr[ns] (up, down, total) =   4.98863  0.69454  5.68317
     Atomic magnetic moment =   4.29410
     SPIN  1
     eigenvalues:
       0.997  0.997  0.998  0.998  0.998
     eigenvectors (columns):
      -0.495  0.858 -0.003 -0.067  0.115
       0.111 -0.000 -0.591 -0.799 -0.000
      -0.053 -0.094 -0.571  0.414  0.701
      -0.858 -0.496 -0.004 -0.116 -0.067
       0.053 -0.094  0.571 -0.414  0.701
     occupation matrix ns (before diag.):
       0.997  0.000  0.000 -0.000  0.000
       0.000  0.998 -0.000  0.000  0.000
       0.000 -0.000  0.998 -0.000  0.000
      -0.000  0.000 -0.000  0.997 -0.000
       0.000  0.000  0.000 -0.000  0.998
     SPIN  2
     eigenvalues:
       0.087  0.087  0.152  0.155  0.213
     eigenvectors (columns):
      -0.865  0.500  0.018  0.033  0.000
      -0.000  0.030 -0.815  0.000 -0.579
      -0.027 -0.015  0.409 -0.707 -0.576
       0.500  0.865  0.032 -0.019  0.000
      -0.027  0.015 -0.409 -0.707  0.576
     occupation matrix ns (before diag.):
       0.087 -0.001 -0.001  0.000 -0.002
      -0.001  0.172  0.020 -0.002 -0.020
      -0.001  0.020  0.174  0.002 -0.019
       0.000 -0.002  0.002  0.087  0.000
      -0.002 -0.020 -0.019  0.000  0.174
     --------------------- ATOM   43 ----------------------
     Tr[ns] (up, down, total) =   4.98863  0.69454  5.68317
     Atomic magnetic moment =   4.29410
     SPIN  1
     eigenvalues:
       0.997  0.997  0.998  0.998  0.998
     eigenvectors (columns):
       0.991 -0.000  0.005  0.134 -0.000
      -0.053 -0.094 -0.571  0.414  0.701
      -0.053  0.094 -0.571  0.414 -0.701
       0.000  0.991 -0.000  0.000  0.133
      -0.111  0.000  0.591  0.799 -0.000
     occupation matrix ns (before diag.):
       0.997  0.000  0.000 -0.000  0.000
       0.000  0.998 -0.000  0.000  0.000
       0.000 -0.000  0.998 -0.000  0.000
      -0.000  0.000 -0.000  0.997 -0.000
       0.000  0.000  0.000 -0.000  0.998
     SPIN  2
     eigenvalues:
       0.087  0.087  0.152  0.155  0.213
     eigenvectors (columns):
       0.000 -0.999  0.037  0.000 -0.000
       0.027 -0.015 -0.409 -0.707 -0.576
      -0.027 -0.015 -0.409  0.707 -0.576
       0.999  0.000  0.000  0.039 -0.000
       0.000 -0.030 -0.815 -0.000  0.579
     occupation matrix ns (before diag.):
       0.087 -0.001 -0.001 -0.000 -0.002
      -0.001  0.174  0.019 -0.002 -0.020
      -0.001  0.019  0.174  0.002 -0.020
      -0.000 -0.002  0.002  0.087 -0.000
      -0.002 -0.020 -0.020 -0.000  0.172
     --------------------- ATOM   44 ----------------------
     Tr[ns] (up, down, total) =   4.98863  0.69454  5.68317
     Atomic magnetic moment =   4.29410
     SPIN  1
     eigenvalues:
       0.997  0.997  0.998  0.998  0.998
     eigenvectors (columns):
      -0.495  0.858 -0.003 -0.067  0.115
      -0.053 -0.094 -0.571  0.414  0.701
       0.111 -0.000 -0.591 -0.799 -0.000
       0.858  0.496  0.004  0.116  0.067
       0.053 -0.094  0.571 -0.414  0.701
     occupation matrix ns (before diag.):
       0.997  0.000  0.000  0.000  0.000
       0.000  0.998 -0.000  0.000  0.000
       0.000 -0.000  0.998 -0.000  0.000
       0.000  0.000 -0.000  0.997  0.000
       0.000  0.000  0.000  0.000  0.998
     SPIN  2
     eigenvalues:
       0.087  0.087  0.152  0.155  0.213
     eigenvectors (columns):
       0.865 -0.500 -0.018 -0.033  0.000
       0.027  0.015 -0.409  0.707 -0.576
      -0.000 -0.030  0.815 -0.000 -0.579
       0.500  0.865  0.032 -0.019 -0.000
       0.027 -0.015  0.409  0.707  0.576
     occupation matrix ns (before diag.):
       0.087 -0.001 -0.001 -0.000 -0.002
      -0.001  0.174  0.020 -0.002 -0.019
      -0.001  0.020  0.172  0.002 -0.020
      -0.000 -0.002  0.002  0.087 -0.000
[...]
     atom   41 type  2   force =     0.00000182   -0.00000296   -0.00000281
     atom   42 type  2   force =    -0.00000695    0.00000667   -0.00000249
     atom   43 type  2   force =    -0.00000330    0.00000133   -0.00000355
     atom   44 type  2   force =    -0.00001169   -0.00001171    0.00000002
     atom   45 type  2   force =     0.00000623   -0.00000952   -0.00001878
     atom   46 type  2   force =     0.00000051   -0.00000429    0.00000064
     atom   47 type  2   force =    -0.00000075   -0.00000008    0.00000290
     atom   48 type  2   force =    -0.00000309   -0.00000213    0.00000715
     atom   49 type  3   force =     0.00000327    0.00000912   -0.00001403
     atom   50 type  3   force =    -0.00000973    0.00000585    0.00001801
     atom   51 type  3   force =     0.00000600    0.00000426    0.00000071
     atom   52 type  3   force =     0.00001182    0.00000279   -0.00001239
     atom   53 type  3   force =    -0.00001240    0.00001153    0.00000131
     atom   54 type  3   force =    -0.00000478   -0.00000462   -0.00000810
     atom   55 type  3   force =     0.00000286   -0.00000030   -0.00000001
     atom   56 type  3   force =    -0.00000170    0.00000149    0.00000482
     atom   57 type  3   force =     0.00000020   -0.00000228    0.00000031
     atom   58 type  3   force =     0.00000236   -0.00000443    0.00000346
     atom   59 type  3   force =    -0.00000426   -0.00000613   -0.00000193
     atom   60 type  3   force =     0.00000286   -0.00000917    0.00001557
     atom   61 type  3   force =     0.00001139   -0.00000934   -0.00000232
     atom   62 type  3   force =    -0.00000438   -0.00000178   -0.00000506
     atom   63 type  3   force =    -0.00000162    0.00000424    0.00000040
     atom   64 type  3   force =    -0.00000098   -0.00000121    0.00000050
     The core correction contribution to forces
     atom    1 type  1   force =    -0.00000011   -0.00000011   -0.00000010
     atom    2 type  1   force =    -0.00000001   -0.00000005    0.00000003
     atom    3 type  1   force =    -0.00000004   -0.00000003    0.00000002
     atom    4 type  1   force =     0.00000004   -0.00000007   -0.00000004
     atom    5 type  1   force =    -0.00000003   -0.00000005    0.00000003
     atom    6 type  1   force =     0.00000004   -0.00000005   -0.00000005
     atom    7 type  1   force =    -0.00000002    0.00000003   -0.00000004
     atom    8 type  1   force =    -0.00000003    0.00000005    0.00000001
     atom    9 type  1   force =    -0.00000015   -0.00000010   -0.00000013
     atom   10 type  1   force =     0.00000004    0.00000007   -0.00000000
     atom   11 type  1   force =     0.00000000    0.00000005    0.00000003
     atom   12 type  1   force =    -0.00000008   -0.00000011   -0.00000012
     atom   13 type  1   force =     0.00000004    0.00000001    0.00000003
     atom   14 type  1   force =    -0.00000016   -0.00000012   -0.00000009
     atom   15 type  1   force =     0.00000003   -0.00000002    0.00000000
     atom   16 type  1   force =    -0.00000001    0.00000005   -0.00000004
     atom   17 type  1   force =     0.00000003    0.00000002   -0.00000002
     atom   18 type  1   force =    -0.00000003    0.00000001    0.00000004
     atom   19 type  1   force =     0.00000003   -0.00000005    0.00000004
     atom   20 type  1   force =     0.00000015    0.00000010    0.00000010
     atom   21 type  1   force =    -0.00000004   -0.00000002   -0.00000001
     atom   22 type  1   force =     0.00000012    0.00000011    0.00000014
     atom   23 type  1   force =    -0.00000000   -0.00000003   -0.00000007
     atom   24 type  1   force =    -0.00000006    0.00000001    0.00000000
     atom   25 type  1   force =     0.00000003   -0.00000005    0.00000003
     atom   26 type  1   force =     0.00000015    0.00000010    0.00000013
     atom   27 type  1   force =    -0.00000006    0.00000005    0.00000002
     atom   28 type  1   force =    -0.00000006    0.00000000    0.00000004
     atom   29 type  1   force =     0.00000004    0.00000002   -0.00000007
     atom   30 type  1   force =     0.00000003   -0.00000001    0.00000003
     atom   31 type  1   force =     0.00000003    0.00000006   -0.00000003
     atom   32 type  1   force =     0.00000008    0.00000010    0.00000009
     atom   33 type  2   force =    -0.00000001    0.00000000   -0.00000003
     atom   34 type  2   force =    -0.00000000    0.00000004    0.00000000
     atom   35 type  2   force =    -0.00000000    0.00000003    0.00000002
     atom   36 type  2   force =    -0.00000001    0.00000001    0.00000001
     atom   37 type  2   force =     0.00000003   -0.00000000    0.00000004
     atom   38 type  2   force =     0.00000001    0.00000000   -0.00000001
     atom   39 type  2   force =    -0.00000001   -0.00000001    0.00000004
     atom   40 type  2   force =     0.00000001   -0.00000001    0.00000001
     atom   41 type  2   force =     0.00000002   -0.00000004   -0.00000002
     atom   42 type  2   force =    -0.00000002    0.00000001   -0.00000001
     atom   43 type  2   force =    -0.00000002    0.00000002   -0.00000003
     atom   44 type  2   force =    -0.00000001   -0.00000000   -0.00000001
     atom   45 type  2   force =    -0.00000000   -0.00000001   -0.00000002
     atom   46 type  2   force =     0.00000001   -0.00000004    0.00000000
     atom   47 type  2   force =    -0.00000001   -0.00000001    0.00000000
     atom   48 type  2   force =     0.00000000   -0.00000002    0.00000001
     atom   49 type  3   force =     0.00000002    0.00000001   -0.00000006
     atom   50 type  3   force =    -0.00000001   -0.00000000    0.00000004
     atom   51 type  3   force =     0.00000002   -0.00000000    0.00000000
     atom   52 type  3   force =     0.00000001    0.00000003   -0.00000002
     atom   53 type  3   force =    -0.00000004    0.00000001   -0.00000001
     atom   54 type  3   force =    -0.00000001    0.00000000   -0.00000003
     atom   55 type  3   force =     0.00000001   -0.00000000    0.00000001
     atom   56 type  3   force =    -0.00000002   -0.00000000    0.00000002
     atom   57 type  3   force =    -0.00000001   -0.00000003    0.00000001
     atom   58 type  3   force =     0.00000000   -0.00000003    0.00000002
     atom   59 type  3   force =    -0.00000000   -0.00000001   -0.00000002
     atom   60 type  3   force =    -0.00000001    0.00000000    0.00000001
     atom   61 type  3   force =     0.00000001   -0.00000000   -0.00000002
     atom   62 type  3   force =     0.00000000   -0.00000001    0.00000002
     atom   63 type  3   force =    -0.00000000    0.00000005    0.00000000
     atom   64 type  3   force =     0.00000003   -0.00000002    0.00000000
     The Hubbard contrib.    to forces
     atom    1 type  1   force =     0.00000000    0.00000000    0.00000000
     atom    2 type  1   force =     0.00000000    0.00000000    0.00000000
     atom    3 type  1   force =     0.00000000    0.00000000    0.00000000
     atom    4 type  1   force =     0.00000000    0.00000000    0.00000000
     atom    5 type  1   force =     0.00000000    0.00000000    0.00000000
     atom    6 type  1   force =     0.00000000    0.00000000    0.00000000
     atom    7 type  1   force =     0.00000000    0.00000000    0.00000000
     atom    8 type  1   force =     0.00000000    0.00000000    0.00000000
     atom    9 type  1   force =     0.00000000    0.00000000    0.00000000
     atom   10 type  1   force =     0.00000000    0.00000000    0.00000000
     atom   11 type  1   force =     0.00000000    0.00000000    0.00000000
     atom   12 type  1   force =     0.00000000    0.00000000    0.00000000
     atom   13 type  1   force =     0.00000000    0.00000000    0.00000000
     atom   14 type  1   force =     0.00000000    0.00000000    0.00000000
     atom   15 type  1   force =     0.00000000    0.00000000    0.00000000
     atom   16 type  1   force =     0.00000000    0.00000000    0.00000000
     atom   17 type  1   force =     0.00000000    0.00000000    0.00000000
     atom   18 type  1   force =     0.00000000    0.00000000    0.00000000
     atom   19 type  1   force =     0.00000000    0.00000000    0.00000000
     atom   20 type  1   force =     0.00000000    0.00000000    0.00000000
     atom   21 type  1   force =     0.00000000    0.00000000    0.00000000
     atom   22 type  1   force =     0.00000000    0.00000000    0.00000000
     atom   23 type  1   force =     0.00000000    0.00000000    0.00000000
     atom   24 type  1   force =     0.00000000    0.00000000    0.00000000
     atom   25 type  1   force =     0.00000000    0.00000000    0.00000000
     atom   26 type  1   force =     0.00000000    0.00000000    0.00000000
     atom   27 type  1   force =     0.00000000    0.00000000    0.00000000
     atom   28 type  1   force =     0.00000000    0.00000000    0.00000000
     atom   29 type  1   force =     0.00000000    0.00000000    0.00000000
     atom   30 type  1   force =     0.00000000    0.00000000    0.00000000
     atom   31 type  1   force =     0.00000000    0.00000000    0.00000000
     atom   32 type  1   force =     0.00000000    0.00000000    0.00000000
     atom   33 type  2   force =    -0.00000000    0.00000000    0.00000000
     atom   34 type  2   force =     0.00000011    0.00000000   -0.00000011
     atom   35 type  2   force =    -0.00000000    0.00000000    0.00000000
     atom   36 type  2   force =     0.00000000    0.00000011   -0.00000011
     atom   37 type  2   force =     0.00000008    0.00000008   -0.00000006
     atom   38 type  2   force =    -0.00000006    0.00000008    0.00000008
     atom   39 type  2   force =     0.00000000    0.00000000    0.00000000
     atom   40 type  2   force =     0.00000008   -0.00000006    0.00000008
     atom   41 type  2   force =     0.00000000    0.00000000   -0.00000000
     atom   42 type  2   force =    -0.00000011   -0.00000000    0.00000011
     atom   43 type  2   force =    -0.00000011    0.00000011   -0.00000000
     atom   44 type  2   force =     0.00000000   -0.00000011    0.00000011
     atom   45 type  2   force =     0.00000011   -0.00000011    0.00000000
     atom   46 type  2   force =    -0.00000008    0.00000006   -0.00000008
     atom   47 type  2   force =     0.00000006   -0.00000008   -0.00000008
     atom   48 type  2   force =    -0.00000008   -0.00000008    0.00000006
     atom   49 type  3   force =     0.00000008    0.00000008   -0.00000001
     atom   50 type  3   force =     0.00000000   -0.00000000    0.00000000
     atom   51 type  3   force =     0.00000008   -0.00000001    0.00000008
     atom   52 type  3   force =    -0.00000000   -0.00000000   -0.00000000
     atom   53 type  3   force =    -0.00000001    0.00000008    0.00000008
     atom   54 type  3   force =     0.00000000    0.00000000    0.00000000
     atom   55 type  3   force =     0.00000000    0.00000005   -0.00000005
     atom   56 type  3   force =    -0.00000005    0.00000005    0.00000000
     atom   57 type  3   force =     0.00000005    0.00000000   -0.00000005
     atom   58 type  3   force =     0.00000000    0.00000000    0.00000000
     atom   59 type  3   force =    -0.00000005   -0.00000000    0.00000005
     atom   60 type  3   force =     0.00000005   -0.00000005    0.00000000
     atom   61 type  3   force =     0.00000000   -0.00000005    0.00000005
     atom   62 type  3   force =    -0.00000008   -0.00000008    0.00000001
     atom   63 type  3   force =    -0.00000008    0.00000001   -0.00000008
     atom   64 type  3   force =     0.00000001   -0.00000008   -0.00000008
     The SCF correction term to forces
     atom    1 type  1   force =    -0.00000270   -0.00001114   -0.00000131
     atom    2 type  1   force =    -0.00000185   -0.00000228   -0.00000060
     atom    3 type  1   force =    -0.00000201   -0.00000290   -0.00001262
     atom    4 type  1   force =    -0.00001180   -0.00000266   -0.00000032
     atom    5 type  1   force =     0.00000101   -0.00000397   -0.00000591
     atom    6 type  1   force =    -0.00000430   -0.00000271    0.00000119
     atom    7 type  1   force =    -0.00000093    0.00000196   -0.00000176
     atom    8 type  1   force =    -0.00000285   -0.00000014   -0.00000017
     atom    9 type  1   force =    -0.00000087   -0.00000181   -0.00000098
     atom   10 type  1   force =    -0.00000230   -0.00000127   -0.00000168
     atom   11 type  1   force =    -0.00000075    0.00000136   -0.00000352
     atom   12 type  1   force =    -0.00000240   -0.00000215   -0.00000234
     atom   13 type  1   force =    -0.00000320    0.00000051   -0.00000528
     atom   14 type  1   force =     0.00000219   -0.00000138    0.00000052
     atom   15 type  1   force =     0.00000153   -0.00000271   -0.00000054
     atom   16 type  1   force =     0.00000171    0.00000168    0.00000545
     atom   17 type  1   force =     0.00001119   -0.00000203    0.00000036
     atom   18 type  1   force =    -0.00000100   -0.00000002    0.00001306
     atom   19 type  1   force =     0.00000412   -0.00000123    0.00000573
     atom   20 type  1   force =     0.00000146    0.00000229    0.00000133
     atom   21 type  1   force =    -0.00000170   -0.00000055   -0.00000204
     atom   22 type  1   force =     0.00000258    0.00000165    0.00000139
     atom   23 type  1   force =     0.00000141    0.00000334    0.00000063
     atom   24 type  1   force =     0.00000120    0.00000267    0.00000182
     atom   25 type  1   force =     0.00000184    0.00000288    0.00000311
     atom   26 type  1   force =    -0.00000225    0.00001039    0.00000110
     atom   27 type  1   force =    -0.00000077    0.00000261    0.00000567
     atom   28 type  1   force =     0.00000154    0.00000111    0.00000047
     atom   29 type  1   force =     0.00000203   -0.00000156   -0.00000005
     atom   30 type  1   force =     0.00000271    0.00000262    0.00000175
     atom   31 type  1   force =     0.00000306    0.00000340   -0.00000495
     atom   32 type  1   force =     0.00000177    0.00000177    0.00000030
     atom   33 type  2   force =     0.00001420   -0.00000724    0.00002533
     atom   34 type  2   force =    -0.00000183   -0.00000315   -0.00000113
     atom   35 type  2   force =    -0.00001357   -0.00000527   -0.00001786
     atom   36 type  2   force =     0.00000136   -0.00000160    0.00000239
     atom   37 type  2   force =    -0.00000006   -0.00001505   -0.00001866
     atom   38 type  2   force =    -0.00001562   -0.00001351    0.00000304
     atom   39 type  2   force =     0.00000037    0.00000943   -0.00000994
     atom   40 type  2   force =    -0.00000731    0.00000928   -0.00000194
     atom   41 type  2   force =    -0.00000185    0.00000390    0.00000327
     atom   42 type  2   force =     0.00001039   -0.00000903    0.00000288
     atom   43 type  2   force =     0.00000521   -0.00000192    0.00000441
     atom   44 type  2   force =     0.00001601    0.00001673   -0.00000074
     atom   45 type  2   force =    -0.00000935    0.00001346    0.00002582
     atom   46 type  2   force =    -0.00000019    0.00000449   -0.00000054
     atom   47 type  2   force =     0.00000050   -0.00000001   -0.00000361
     atom   48 type  2   force =     0.00000489    0.00000278   -0.00001066
     atom   49 type  3   force =    -0.00000496   -0.00001261    0.00001764
     atom   50 type  3   force =     0.00001303   -0.00000790   -0.00002477
     atom   51 type  3   force =    -0.00000870   -0.00000661   -0.00000163
     atom   52 type  3   force =    -0.00001610   -0.00000359    0.00001678
     atom   53 type  3   force =     0.00001560   -0.00001614   -0.00000228
     atom   54 type  3   force =     0.00000648    0.00000632    0.00001082
     atom   55 type  3   force =    -0.00000351    0.00000049    0.00000060
     atom   56 type  3   force =     0.00000294   -0.00000190   -0.00000609
     atom   57 type  3   force =    -0.00000098    0.00000279   -0.00000001
     atom   58 type  3   force =    -0.00000302    0.00000576   -0.00000432
     atom   59 type  3   force =     0.00000649    0.00000807    0.00000218
     atom   60 type  3   force =    -0.00000455    0.00001255   -0.00002099
     atom   61 type  3   force =    -0.00001562    0.00001311    0.00000257
     atom   62 type  3   force =     0.00000648    0.00000249    0.00000747
     atom   63 type  3   force =     0.00000275   -0.00000431    0.00000007
     atom   64 type  3   force =     0.00000218    0.00000145   -0.00000016

     Total force =     0.000005     Total SCF correction =     0.000101
     SCF correction compared to forces is large: reduce conv_thr to get better values

     Writing all to output data dir ./out/NiO-cubic.save/

     init_run     :     21.46s CPU     22.56s WALL (       1 calls)
     electrons    :   1421.80s CPU   1450.75s WALL (       1 calls)
     forces       :     36.57s CPU     37.17s WALL (       1 calls)

     Called by init_run:
     wfcinit      :     18.19s CPU     19.04s WALL (       1 calls)
     wfcinit:atom :      0.06s CPU      0.16s WALL (       2 calls)
     wfcinit:wfcr :     15.97s CPU     16.17s WALL (       2 calls)
     potinit      :      1.00s CPU      1.11s WALL (       1 calls)
     hinit0       :      1.32s CPU      1.42s WALL (       1 calls)

     Called by electrons:
     c_bands      :   1205.16s CPU   1231.50s WALL (      28 calls)
     sum_band     :    194.03s CPU    194.55s WALL (      28 calls)
     v_of_rho     :     16.63s CPU     18.03s WALL (      29 calls)
     v_h          :      0.93s CPU      0.94s WALL (      29 calls)
     v_xc         :     16.22s CPU     17.68s WALL (      30 calls)
     mix_rho      :      5.48s CPU      5.55s WALL (      28 calls)

     Called by c_bands:
     init_us_2    :     12.19s CPU     12.32s WALL (     120 calls)
     init_us_2:cp :     12.19s CPU     12.32s WALL (     120 calls)
     regterg      :   1179.55s CPU   1205.13s WALL (      56 calls)

     Called by sum_band:
     sum_band:wei :      0.01s CPU      0.01s WALL (      28 calls)
     sum_band:loo :    181.95s CPU    182.43s WALL (      28 calls)
     sum_band:buf :      3.05s CPU      3.05s WALL (      56 calls)
     sum_band:ini :      5.71s CPU      5.72s WALL (      56 calls)

     Called by *egterg:
     rdiaghg      :     41.34s CPU     41.35s WALL (     223 calls)
     regterg:over :     66.97s CPU     67.07s WALL (     167 calls)
     regterg:upda :     41.65s CPU     41.69s WALL (     167 calls)
     regterg:last :     77.90s CPU     78.00s WALL (     108 calls)
     h_psi        :    927.87s CPU    930.85s WALL (     225 calls)
     g_psi        :      2.11s CPU      2.12s WALL (     167 calls)

     Called by h_psi:
     h_psi:calbec :     70.41s CPU     70.60s WALL (     225 calls)
     vloc_psi     :    627.28s CPU    629.55s WALL (     225 calls)
     add_vuspsi   :     65.65s CPU     65.72s WALL (     225 calls)
     vhpsi        :    157.58s CPU    158.01s WALL (     225 calls)

     General routines
     calbec       :    116.70s CPU    117.03s WALL (    2056 calls)
     fft          :      9.28s CPU      9.43s WALL (     445 calls)
     ffts         :      1.14s CPU      1.15s WALL (      56 calls)
     fftw         :    576.08s CPU    577.64s WALL (   70222 calls)
     davcio       :      0.00s CPU      0.06s WALL (       2 calls)

     Parallel routines

     Hubbard U routines
     new_ns       :      9.06s CPU      9.08s WALL (      28 calls)
     vhpsi        :    157.58s CPU    158.01s WALL (     225 calls)
     force_hub    :     29.61s CPU     29.92s WALL (       1 calls)

     PWSCF        :  24m42.41s CPU  25m15.76s WALL


   This run was terminated on:  17: 0:22  17Oct2022            

=------------------------------------------------------------------------------=
   JOB DONE.
=------------------------------------------------------------------------------=
