
     Program PWSCF v.7.0 starts on 17Oct2022 at 15:59:49 

     This program is part of the open-source Quantum ESPRESSO suite
     for quantum simulation of materials; please cite
         "P. Giannozzi et al., J. Phys.:Condens. Matter 21 395502 (2009);
         "P. Giannozzi et al., J. Phys.:Condens. Matter 29 465901 (2017);
         "P. Giannozzi et al., J. Chem. Phys. 152 154105 (2020);
          URL http://www.quantum-espresso.org", 
     in publications or presentations arising from this work. More details at
     http://www.quantum-espresso.org/quote

     Parallel version (MPI), running on    32 processors

     MPI processes distributed on     1 nodes
     R & G space division:  proc/nbgrp/npool/nimage =      32
     249267 MiB available memory on the printing compute node when the environment starts

     Waiting for input...
     Reading input from standard input

     Current dimensions of program PWSCF are:
     Max number of different atomic species (ntypx) = 10
     Max number of k-points (npk) =  40000
     Max angular momentum in pseudopotentials (lmaxx) =  4

     IMPORTANT: XC functional enforced from input :
     Exchange-correlation= PBE
                           (   1   4   3   4   0   0   0)
     Any further DFT definition will be discarded
     Please, verify this is what you really want


     gamma-point specific algorithms are used
     Found identity + ( -0.2500 -0.2500 -0.5000) symmetry
     This is a supercell, fractional translations are disabled

     Subspace diagonalization in iterative solution of the eigenvalue problem:
     a serial algorithm will be used


     Parallelization info
     --------------------
     sticks:   dense  smooth     PW     G-vecs:    dense   smooth      PW
     Min         626     626    155                66982    66982    8360
     Max         628     628    158                66996    66996    8374
     Sum       20069   20069   5013              2143611  2143611  267731

     Using Slab Decomposition



     bravais-lattice index     =            8
     lattice parameter (alat)  =      15.7622  a.u.
     unit-cell volume          =    3916.0705 (a.u.)^3
     number of atoms/cell      =           64
     number of atomic types    =            3
     number of electrons       =       768.00
     number of Kohn-Sham states=          448
     kinetic-energy cutoff     =     254.2410  Ry
     charge density cutoff     =    1016.9640  Ry
     scf convergence threshold =      1.0E-08
     mixing beta               =       0.2500
     number of iterations used =            8  plain     mixing
     Exchange-correlation= PBE
                           (   1   4   3   4   0   0   0)

     celldm(1)=  15.762200  celldm(2)=   1.000000  celldm(3)=   1.000000
     celldm(4)=   0.000000  celldm(5)=   0.000000  celldm(6)=   0.000000

     crystal axes: (cart. coord. in units of alat)
               a(1) = (   1.000000   0.000000   0.000000 )  
               a(2) = (   0.000000   1.000000   0.000000 )  
               a(3) = (   0.000000   0.000000   1.000000 )  

     reciprocal axes: (cart. coord. in units 2 pi/alat)
               b(1) = (  1.000000  0.000000  0.000000 )  
               b(2) = (  0.000000  1.000000  0.000000 )  
               b(3) = (  0.000000  0.000000  1.000000 )  


     PseudoPot. # 1 for O  read from file:
     /home/emil/Pseudo/nc-sr-04_pbe_stringent/O.upf
     MD5 check sum: 9db02a5ece9d56b81b65a73f8163743d
     Pseudo is Norm-conserving + core correction, Zval =  6.0
     Generated using ONCVPSP code by D. R. Hamann
     Using radial grid of  936 points,  5 beta functions with: 
                l(1) =   0
                l(2) =   0
                l(3) =   1
                l(4) =   1
                l(5) =   2

     PseudoPot. # 2 for Ni read from file:
     /home/emil/Pseudo/nc-sr-04_pbe_stringent/Ni.upf
     MD5 check sum: ff72d48937b3d9f5815e777d24fa1439
     Pseudo is Norm-conserving + core correction, Zval = 18.0
     Generated using ONCVPSP code by D. R. Hamann
     Using radial grid of 1372 points,  6 beta functions with: 
                l(1) =   0
                l(2) =   0
                l(3) =   1
                l(4) =   1
                l(5) =   2
                l(6) =   2

     PseudoPot. # 3 for Ni read from file:
     /home/emil/Pseudo/nc-sr-04_pbe_stringent/Ni.upf
     MD5 check sum: ff72d48937b3d9f5815e777d24fa1439
     Pseudo is Norm-conserving + core correction, Zval = 18.0
     Generated using ONCVPSP code by D. R. Hamann
     Using radial grid of 1372 points,  6 beta functions with: 
                l(1) =   0
                l(2) =   0
                l(3) =   1
                l(4) =   1
                l(5) =   2
                l(6) =   2

     atomic species   valence    mass     pseudopotential
        O              6.00     1.00000     O ( 1.00)
        Ni            18.00     1.00000     Ni( 1.00)
        Ni1           18.00     1.00000     Ni( 1.00)

     Starting magnetic structure 
     atomic species   magnetization
        O            0.000
        Ni           1.000
        Ni1         -1.000


     Simplified LDA+U calculation (l_max = 2) with parameters (eV):
     atomic species    L          U    alpha       J0     beta
        Ni             2     6.5000   0.0000   0.0000   0.0000
        Ni1            2     6.5000   0.0000   0.0000   0.0000



     12 Sym. Ops., with inversion, found


                                    s                        frac. trans.

      isym =  1     identity                                     

 cryst.   s( 1) = (     1          0          0      )
                  (     0          1          0      )
                  (     0          0          1      )

 cart.    s( 1) = (  1.0000000  0.0000000  0.0000000 )
                  (  0.0000000  1.0000000  0.0000000 )
                  (  0.0000000  0.0000000  1.0000000 )


      isym =  2     180 deg rotation - cart. axis [1,-1,0]       

 cryst.   s( 2) = (     0         -1          0      )
                  (    -1          0          0      )
                  (     0          0         -1      )

 cart.    s( 2) = (  0.0000000 -1.0000000  0.0000000 )
                  ( -1.0000000  0.0000000  0.0000000 )
                  (  0.0000000  0.0000000 -1.0000000 )


      isym =  3     180 deg rotation - cart. axis [-1,0,1]       

 cryst.   s( 3) = (     0          0         -1      )
                  (     0         -1          0      )
                  (    -1          0          0      )

 cart.    s( 3) = (  0.0000000  0.0000000 -1.0000000 )
                  (  0.0000000 -1.0000000  0.0000000 )
                  ( -1.0000000  0.0000000  0.0000000 )


      isym =  4     180 deg rotation - cart. axis [0,1,-1]       

 cryst.   s( 4) = (    -1          0          0      )
                  (     0          0         -1      )
                  (     0         -1          0      )

 cart.    s( 4) = ( -1.0000000  0.0000000  0.0000000 )
                  (  0.0000000  0.0000000 -1.0000000 )
                  (  0.0000000 -1.0000000  0.0000000 )


      isym =  5     120 deg rotation - cart. axis [-1,-1,-1]     

 cryst.   s( 5) = (     0          0          1      )
                  (     1          0          0      )
                  (     0          1          0      )

 cart.    s( 5) = (  0.0000000  1.0000000  0.0000000 )
                  (  0.0000000  0.0000000  1.0000000 )
                  (  1.0000000  0.0000000  0.0000000 )


      isym =  6     120 deg rotation - cart. axis [1,1,1]        

 cryst.   s( 6) = (     0          1          0      )
                  (     0          0          1      )
                  (     1          0          0      )

 cart.    s( 6) = (  0.0000000  0.0000000  1.0000000 )
                  (  1.0000000  0.0000000  0.0000000 )
                  (  0.0000000  1.0000000  0.0000000 )


      isym =  7     inversion                                    

 cryst.   s( 7) = (    -1          0          0      )
                  (     0         -1          0      )
                  (     0          0         -1      )

 cart.    s( 7) = ( -1.0000000  0.0000000  0.0000000 )
                  (  0.0000000 -1.0000000  0.0000000 )
                  (  0.0000000  0.0000000 -1.0000000 )


      isym =  8     inv. 180 deg rotation - cart. axis [1,-1,0]  

 cryst.   s( 8) = (     0          1          0      )
                  (     1          0          0      )
                  (     0          0          1      )

 cart.    s( 8) = (  0.0000000  1.0000000  0.0000000 )
                  (  1.0000000  0.0000000  0.0000000 )
                  (  0.0000000  0.0000000  1.0000000 )


      isym =  9     inv. 180 deg rotation - cart. axis [-1,0,1]  

 cryst.   s( 9) = (     0          0          1      )
                  (     0          1          0      )
                  (     1          0          0      )

 cart.    s( 9) = (  0.0000000  0.0000000  1.0000000 )
                  (  0.0000000  1.0000000  0.0000000 )
                  (  1.0000000  0.0000000  0.0000000 )


      isym = 10     inv. 180 deg rotation - cart. axis [0,1,-1]  

 cryst.   s(10) = (     1          0          0      )
                  (     0          0          1      )
                  (     0          1          0      )

 cart.    s(10) = (  1.0000000  0.0000000  0.0000000 )
                  (  0.0000000  0.0000000  1.0000000 )
                  (  0.0000000  1.0000000  0.0000000 )


      isym = 11     inv. 120 deg rotation - cart. axis [-1,-1,-1]

 cryst.   s(11) = (     0          0         -1      )
                  (    -1          0          0      )
                  (     0         -1          0      )

 cart.    s(11) = (  0.0000000 -1.0000000  0.0000000 )
                  (  0.0000000  0.0000000 -1.0000000 )
                  ( -1.0000000  0.0000000  0.0000000 )


      isym = 12     inv. 120 deg rotation - cart. axis [1,1,1]   

 cryst.   s(12) = (     0         -1          0      )
                  (     0          0         -1      )
                  (    -1          0          0      )

 cart.    s(12) = (  0.0000000  0.0000000 -1.0000000 )
                  ( -1.0000000  0.0000000  0.0000000 )
                  (  0.0000000 -1.0000000  0.0000000 )


     point group D_3d (-3m) 
     there are  6 classes
     the character table:

       E     2C3   3C2'  i     2S6   3s_d 
A_1g   1.00  1.00  1.00  1.00  1.00  1.00
A_2g   1.00  1.00 -1.00  1.00  1.00 -1.00
E_g    2.00 -1.00  0.00  2.00 -1.00  0.00
A_1u   1.00  1.00  1.00 -1.00 -1.00 -1.00
A_2u   1.00  1.00 -1.00 -1.00 -1.00  1.00
E_u    2.00 -1.00  0.00 -2.00  1.00  0.00

     the symmetry operations in each class and the name of the first element:

     E        1
          identity                                               
     2C3      5    6
          120 deg rotation - cart. axis [-1,-1,-1]               
     3C2'     2    4    3
          180 deg rotation - cart. axis [1,-1,0]                 
     i        7
          inversion                                              
     2S6     11   12
          inv. 120 deg rotation - cart. axis [-1,-1,-1]          
     3s_d     8   10    9
          inv. 180 deg rotation - cart. axis [1,-1,0]            

   Cartesian axes

     site n.     atom                  positions (alat units)
         1           O   tau(   1) = (   0.2500000   0.2500000   0.2500000  )
         2           O   tau(   2) = (   0.0000000   0.0000000   0.7500000  )
         3           O   tau(   3) = (   0.2500000   0.0000000   0.5000000  )
         4           O   tau(   4) = (   0.5000000   0.0000000   0.2500000  )
         5           O   tau(   5) = (   0.0000000   0.2500000   0.5000000  )
         6           O   tau(   6) = (   0.5000000   0.2500000   0.0000000  )
         7           O   tau(   7) = (   0.0000000   0.5000000   0.2500000  )
         8           O   tau(   8) = (   0.2500000   0.5000000   0.0000000  )
         9           O   tau(   9) = (   0.7500000   0.2500000   0.7500000  )
        10           O   tau(  10) = (   0.5000000   0.5000000   0.7500000  )
        11           O   tau(  11) = (   0.7500000   0.5000000   0.5000000  )
        12           O   tau(  12) = (   0.2500000   0.7500000   0.7500000  )
        13           O   tau(  13) = (   0.5000000   0.7500000   0.5000000  )
        14           O   tau(  14) = (   0.7500000   0.7500000   0.2500000  )
        15           O   tau(  15) = (   0.7500000   0.0000000   0.0000000  )
        16           O   tau(  16) = (   0.0000000   0.7500000   0.0000000  )
        17           O   tau(  17) = (   0.0000000   0.0000000   0.2500000  )
        18           O   tau(  18) = (   0.2500000   0.0000000   0.0000000  )
        19           O   tau(  19) = (   0.0000000   0.2500000   0.0000000  )
        20           O   tau(  20) = (   0.2500000   0.2500000   0.7500000  )
        21           O   tau(  21) = (   0.5000000   0.2500000   0.5000000  )
        22           O   tau(  22) = (   0.7500000   0.2500000   0.2500000  )
        23           O   tau(  23) = (   0.2500000   0.5000000   0.5000000  )
        24           O   tau(  24) = (   0.5000000   0.5000000   0.2500000  )
        25           O   tau(  25) = (   0.7500000   0.5000000   0.0000000  )
        26           O   tau(  26) = (   0.2500000   0.7500000   0.2500000  )
        27           O   tau(  27) = (   0.5000000   0.7500000   0.0000000  )
        28           O   tau(  28) = (   0.5000000   0.0000000   0.7500000  )
        29           O   tau(  29) = (   0.7500000   0.0000000   0.5000000  )
        30           O   tau(  30) = (   0.0000000   0.5000000   0.7500000  )
        31           O   tau(  31) = (   0.0000000   0.7500000   0.5000000  )
        32           O   tau(  32) = (   0.7500000   0.7500000   0.7500000  )
        33           Ni  tau(  33) = (   0.0000000   0.0000000   0.0000000  )
        34           Ni  tau(  34) = (   0.2500000   0.0000000   0.7500000  )
        35           Ni  tau(  35) = (   0.5000000   0.0000000   0.5000000  )
        36           Ni  tau(  36) = (   0.0000000   0.2500000   0.7500000  )
        37           Ni  tau(  37) = (   0.2500000   0.2500000   0.5000000  )
        38           Ni  tau(  38) = (   0.5000000   0.2500000   0.2500000  )
        39           Ni  tau(  39) = (   0.0000000   0.5000000   0.5000000  )
        40           Ni  tau(  40) = (   0.2500000   0.5000000   0.2500000  )
        41           Ni  tau(  41) = (   0.5000000   0.5000000   0.0000000  )
        42           Ni  tau(  42) = (   0.7500000   0.0000000   0.2500000  )
        43           Ni  tau(  43) = (   0.7500000   0.2500000   0.0000000  )
        44           Ni  tau(  44) = (   0.0000000   0.7500000   0.2500000  )
        45           Ni  tau(  45) = (   0.2500000   0.7500000   0.0000000  )
        46           Ni  tau(  46) = (   0.7500000   0.5000000   0.7500000  )
        47           Ni  tau(  47) = (   0.5000000   0.7500000   0.7500000  )
        48           Ni  tau(  48) = (   0.7500000   0.7500000   0.5000000  )
        49           Ni1 tau(  49) = (   0.2500000   0.2500000   0.0000000  )
        50           Ni1 tau(  50) = (   0.0000000   0.0000000   0.5000000  )
        51           Ni1 tau(  51) = (   0.2500000   0.0000000   0.2500000  )
        52           Ni1 tau(  52) = (   0.5000000   0.0000000   0.0000000  )
        53           Ni1 tau(  53) = (   0.0000000   0.2500000   0.2500000  )
        54           Ni1 tau(  54) = (   0.0000000   0.5000000   0.0000000  )
        55           Ni1 tau(  55) = (   0.5000000   0.2500000   0.7500000  )
        56           Ni1 tau(  56) = (   0.7500000   0.2500000   0.5000000  )
        57           Ni1 tau(  57) = (   0.2500000   0.5000000   0.7500000  )
        58           Ni1 tau(  58) = (   0.5000000   0.5000000   0.5000000  )
        59           Ni1 tau(  59) = (   0.7500000   0.5000000   0.2500000  )
        60           Ni1 tau(  60) = (   0.2500000   0.7500000   0.5000000  )
        61           Ni1 tau(  61) = (   0.5000000   0.7500000   0.2500000  )
        62           Ni1 tau(  62) = (   0.7500000   0.7500000   0.0000000  )
        63           Ni1 tau(  63) = (   0.7500000   0.0000000   0.7500000  )
        64           Ni1 tau(  64) = (   0.0000000   0.7500000   0.7500000  )

   Crystallographic axes

     site n.     atom                  positions (cryst. coord.)
         1           O   tau(   1) = (  0.2500000  0.2500000  0.2500000  )
         2           O   tau(   2) = (  0.0000000  0.0000000  0.7500000  )
         3           O   tau(   3) = (  0.2500000  0.0000000  0.5000000  )
         4           O   tau(   4) = (  0.5000000  0.0000000  0.2500000  )
         5           O   tau(   5) = (  0.0000000  0.2500000  0.5000000  )
         6           O   tau(   6) = (  0.5000000  0.2500000  0.0000000  )
         7           O   tau(   7) = (  0.0000000  0.5000000  0.2500000  )
         8           O   tau(   8) = (  0.2500000  0.5000000  0.0000000  )
         9           O   tau(   9) = (  0.7500000  0.2500000  0.7500000  )
        10           O   tau(  10) = (  0.5000000  0.5000000  0.7500000  )
        11           O   tau(  11) = (  0.7500000  0.5000000  0.5000000  )
        12           O   tau(  12) = (  0.2500000  0.7500000  0.7500000  )
        13           O   tau(  13) = (  0.5000000  0.7500000  0.5000000  )
        14           O   tau(  14) = (  0.7500000  0.7500000  0.2500000  )
        15           O   tau(  15) = (  0.7500000  0.0000000  0.0000000  )
        16           O   tau(  16) = (  0.0000000  0.7500000  0.0000000  )
        17           O   tau(  17) = (  0.0000000  0.0000000  0.2500000  )
        18           O   tau(  18) = (  0.2500000  0.0000000  0.0000000  )
        19           O   tau(  19) = (  0.0000000  0.2500000  0.0000000  )
        20           O   tau(  20) = (  0.2500000  0.2500000  0.7500000  )
        21           O   tau(  21) = (  0.5000000  0.2500000  0.5000000  )
        22           O   tau(  22) = (  0.7500000  0.2500000  0.2500000  )
        23           O   tau(  23) = (  0.2500000  0.5000000  0.5000000  )
        24           O   tau(  24) = (  0.5000000  0.5000000  0.2500000  )
        25           O   tau(  25) = (  0.7500000  0.5000000  0.0000000  )
        26           O   tau(  26) = (  0.2500000  0.7500000  0.2500000  )
        27           O   tau(  27) = (  0.5000000  0.7500000  0.0000000  )
        28           O   tau(  28) = (  0.5000000  0.0000000  0.7500000  )
        29           O   tau(  29) = (  0.7500000  0.0000000  0.5000000  )
        30           O   tau(  30) = (  0.0000000  0.5000000  0.7500000  )
        31           O   tau(  31) = (  0.0000000  0.7500000  0.5000000  )
        32           O   tau(  32) = (  0.7500000  0.7500000  0.7500000  )
        33           Ni  tau(  33) = (  0.0000000  0.0000000  0.0000000  )
        34           Ni  tau(  34) = (  0.2500000  0.0000000  0.7500000  )
        35           Ni  tau(  35) = (  0.5000000  0.0000000  0.5000000  )
        36           Ni  tau(  36) = (  0.0000000  0.2500000  0.7500000  )
        37           Ni  tau(  37) = (  0.2500000  0.2500000  0.5000000  )
        38           Ni  tau(  38) = (  0.5000000  0.2500000  0.2500000  )
        39           Ni  tau(  39) = (  0.0000000  0.5000000  0.5000000  )
        40           Ni  tau(  40) = (  0.2500000  0.5000000  0.2500000  )
        41           Ni  tau(  41) = (  0.5000000  0.5000000  0.0000000  )
        42           Ni  tau(  42) = (  0.7500000  0.0000000  0.2500000  )
        43           Ni  tau(  43) = (  0.7500000  0.2500000  0.0000000  )
        44           Ni  tau(  44) = (  0.0000000  0.7500000  0.2500000  )
        45           Ni  tau(  45) = (  0.2500000  0.7500000  0.0000000  )
        46           Ni  tau(  46) = (  0.7500000  0.5000000  0.7500000  )
        47           Ni  tau(  47) = (  0.5000000  0.7500000  0.7500000  )
        48           Ni  tau(  48) = (  0.7500000  0.7500000  0.5000000  )
        49           Ni1 tau(  49) = (  0.2500000  0.2500000  0.0000000  )
        50           Ni1 tau(  50) = (  0.0000000  0.0000000  0.5000000  )
        51           Ni1 tau(  51) = (  0.2500000  0.0000000  0.2500000  )
        52           Ni1 tau(  52) = (  0.5000000  0.0000000  0.0000000  )
        53           Ni1 tau(  53) = (  0.0000000  0.2500000  0.2500000  )
        54           Ni1 tau(  54) = (  0.0000000  0.5000000  0.0000000  )
        55           Ni1 tau(  55) = (  0.5000000  0.2500000  0.7500000  )
        56           Ni1 tau(  56) = (  0.7500000  0.2500000  0.5000000  )
        57           Ni1 tau(  57) = (  0.2500000  0.5000000  0.7500000  )
        58           Ni1 tau(  58) = (  0.5000000  0.5000000  0.5000000  )
        59           Ni1 tau(  59) = (  0.7500000  0.5000000  0.2500000  )
        60           Ni1 tau(  60) = (  0.2500000  0.7500000  0.5000000  )
        61           Ni1 tau(  61) = (  0.5000000  0.7500000  0.2500000  )
        62           Ni1 tau(  62) = (  0.7500000  0.7500000  0.0000000  )
        63           Ni1 tau(  63) = (  0.7500000  0.0000000  0.7500000  )
        64           Ni1 tau(  64) = (  0.0000000  0.7500000  0.7500000  )

     number of k points=     1  Marzari-Vanderbilt smearing, width (Ry)=  0.0002
                       cart. coord. in units 2pi/alat
        k(    1) = (   0.0000000   0.0000000   0.0000000), wk =   1.0000000

                       cryst. coord.
        k(    1) = (   0.0000000   0.0000000   0.0000000), wk =   1.0000000

     Dense  grid:  1071806 G-vectors     FFT dimensions: ( 160, 160, 160)

     Dynamical RAM for                 wfc:      28.63 MB

     Dynamical RAM for     wfc (w. buffer):      85.89 MB

     Dynamical RAM for             U proj.:      10.22 MB

     Dynamical RAM for  U proj. (w. buff.):      30.67 MB

     Dynamical RAM for           str. fact:       1.53 MB

     Dynamical RAM for           local pot:       0.00 MB

     Dynamical RAM for          nlocal pot:      63.39 MB

     Dynamical RAM for                qrad:       7.67 MB

     Dynamical RAM for          rho,v,vnew:       8.93 MB

     Dynamical RAM for               rhoin:       2.98 MB

     Dynamical RAM for            rho*nmix:      16.36 MB

     Dynamical RAM for           G-vectors:       2.17 MB

     Dynamical RAM for          h,s,v(r/c):      18.38 MB

     Dynamical RAM for          <psi|beta>:       3.39 MB

     Dynamical RAM for                 psi:      57.26 MB

     Dynamical RAM for                hpsi:      57.26 MB

     Dynamical RAM for      wfcinit/wfcrot:      61.85 MB

     Estimated static dynamical RAM per process >     211.14 MB

     Estimated max dynamical RAM per process >     363.77 MB

     Estimated total dynamical RAM >      11.37 GB
     Generating pointlists ...
     new r_m :   0.1031 (alat units)  1.6255 (a.u.) for type    1
     new r_m :   0.1031 (alat units)  1.6255 (a.u.) for type    2
     new r_m :   0.1031 (alat units)  1.6255 (a.u.) for type    3

     Initial potential from superposition of free atoms

     starting charge     767.9928, renormalised to     768.0000

     HUBBARD ENERGY =    9.1726  (Ry)
     Number of +U iterations with fixed ns =  0
     Starting occupations:

     Hubbard parameters (eV):
     U(  2) =  6.5000
     U(  3) =  6.5000

     ================= HUBBARD OCCUPATIONS ================
     --------------------- ATOM   33 ----------------------
     Tr[ns] (up, down, total) =   5.00000  3.00000  8.00000
     Atomic magnetic moment =   2.00000
     SPIN  1
     eigenvalues:
       1.000  1.000  1.000  1.000  1.000
     eigenvectors (columns):
       1.000  0.000  0.000  0.000  0.000
       0.000  1.000  0.000  0.000  0.000
       0.000  0.000  1.000  0.000  0.000
       0.000  0.000  0.000  1.000  0.000
       0.000  0.000  0.000  0.000  1.000
     occupation matrix ns (before diag.):
       1.000  0.000  0.000  0.000  0.000
       0.000  1.000  0.000  0.000  0.000
       0.000  0.000  1.000  0.000  0.000
       0.000  0.000  0.000  1.000  0.000
       0.000  0.000  0.000  0.000  1.000
     SPIN  2
     eigenvalues:
       0.600  0.600  0.600  0.600  0.600
     eigenvectors (columns):
       1.000  0.000  0.000  0.000  0.000
       0.000  1.000  0.000  0.000  0.000
       0.000  0.000  1.000  0.000  0.000
       0.000  0.000  0.000  1.000  0.000
       0.000  0.000  0.000  0.000  1.000
     occupation matrix ns (before diag.):
       0.600  0.000  0.000  0.000  0.000
       0.000  0.600  0.000  0.000  0.000
       0.000  0.000  0.600  0.000  0.000
       0.000  0.000  0.000  0.600  0.000
       0.000  0.000  0.000  0.000  0.600
     --------------------- ATOM   34 ----------------------
     Tr[ns] (up, down, total) =   5.00000  3.00000  8.00000
     Atomic magnetic moment =   2.00000
     SPIN  1
     eigenvalues:
       1.000  1.000  1.000  1.000  1.000
     eigenvectors (columns):
       1.000  0.000  0.000  0.000  0.000
       0.000  1.000  0.000  0.000  0.000
       0.000  0.000  1.000  0.000  0.000
       0.000  0.000  0.000  1.000  0.000
       0.000  0.000  0.000  0.000  1.000
     occupation matrix ns (before diag.):
       1.000  0.000  0.000  0.000  0.000
       0.000  1.000  0.000  0.000  0.000
       0.000  0.000  1.000  0.000  0.000
       0.000  0.000  0.000  1.000  0.000
       0.000  0.000  0.000  0.000  1.000
     SPIN  2
     eigenvalues:
       0.600  0.600  0.600  0.600  0.600
     eigenvectors (columns):
       1.000  0.000  0.000  0.000  0.000
       0.000  1.000  0.000  0.000  0.000
       0.000  0.000  1.000  0.000  0.000
       0.000  0.000  0.000  1.000  0.000
       0.000  0.000  0.000  0.000  1.000
     occupation matrix ns (before diag.):
       0.600  0.000  0.000  0.000  0.000
       0.000  0.600  0.000  0.000  0.000
       0.000  0.000  0.600  0.000  0.000
       0.000  0.000  0.000  0.600  0.000
       0.000  0.000  0.000  0.000  0.600
     --------------------- ATOM   35 ----------------------
     Tr[ns] (up, down, total) =   5.00000  3.00000  8.00000
     Atomic magnetic moment =   2.00000
     SPIN  1
     eigenvalues:
       1.000  1.000  1.000  1.000  1.000
     eigenvectors (columns):
       1.000  0.000  0.000  0.000  0.000
       0.000  1.000  0.000  0.000  0.000
       0.000  0.000  1.000  0.000  0.000
       0.000  0.000  0.000  1.000  0.000
       0.000  0.000  0.000  0.000  1.000
     occupation matrix ns (before diag.):
       1.000  0.000  0.000  0.000  0.000
       0.000  1.000  0.000  0.000  0.000
       0.000  0.000  1.000  0.000  0.000
       0.000  0.000  0.000  1.000  0.000
       0.000  0.000  0.000  0.000  1.000
     SPIN  2
     eigenvalues:
       0.600  0.600  0.600  0.600  0.600
     eigenvectors (columns):
       1.000  0.000  0.000  0.000  0.000
       0.000  1.000  0.000  0.000  0.000
       0.000  0.000  1.000  0.000  0.000
       0.000  0.000  0.000  1.000  0.000
       0.000  0.000  0.000  0.000  1.000
     occupation matrix ns (before diag.):
       0.600  0.000  0.000  0.000  0.000
       0.000  0.600  0.000  0.000  0.000
       0.000  0.000  0.600  0.000  0.000
       0.000  0.000  0.000  0.600  0.000
       0.000  0.000  0.000  0.000  0.600
     --------------------- ATOM   36 ----------------------
     Tr[ns] (up, down, total) =   5.00000  3.00000  8.00000
     Atomic magnetic moment =   2.00000
     SPIN  1
     eigenvalues:
       1.000  1.000  1.000  1.000  1.000
     eigenvectors (columns):
       1.000  0.000  0.000  0.000  0.000
       0.000  1.000  0.000  0.000  0.000
       0.000  0.000  1.000  0.000  0.000
       0.000  0.000  0.000  1.000  0.000
       0.000  0.000  0.000  0.000  1.000
     occupation matrix ns (before diag.):
       1.000  0.000  0.000  0.000  0.000
       0.000  1.000  0.000  0.000  0.000
       0.000  0.000  1.000  0.000  0.000
       0.000  0.000  0.000  1.000  0.000
       0.000  0.000  0.000  0.000  1.000
     SPIN  2
     eigenvalues:
       0.600  0.600  0.600  0.600  0.600
     eigenvectors (columns):
       1.000  0.000  0.000  0.000  0.000
       0.000  1.000  0.000  0.000  0.000
       0.000  0.000  1.000  0.000  0.000
       0.000  0.000  0.000  1.000  0.000
       0.000  0.000  0.000  0.000  1.000
     occupation matrix ns (before diag.):
       0.600  0.000  0.000  0.000  0.000
       0.000  0.600  0.000  0.000  0.000
       0.000  0.000  0.600  0.000  0.000
       0.000  0.000  0.000  0.600  0.000
       0.000  0.000  0.000  0.000  0.600
     --------------------- ATOM   37 ----------------------
     Tr[ns] (up, down, total) =   5.00000  3.00000  8.00000
     Atomic magnetic moment =   2.00000
     SPIN  1
     eigenvalues:
       1.000  1.000  1.000  1.000  1.000
     eigenvectors (columns):
       1.000  0.000  0.000  0.000  0.000
       0.000  1.000  0.000  0.000  0.000
       0.000  0.000  1.000  0.000  0.000
       0.000  0.000  0.000  1.000  0.000
       0.000  0.000  0.000  0.000  1.000
     occupation matrix ns (before diag.):
       1.000  0.000  0.000  0.000  0.000
       0.000  1.000  0.000  0.000  0.000
       0.000  0.000  1.000  0.000  0.000
       0.000  0.000  0.000  1.000  0.000
       0.000  0.000  0.000  0.000  1.000
     SPIN  2
     eigenvalues:
       0.600  0.600  0.600  0.600  0.600
     eigenvectors (columns):
       1.000  0.000  0.000  0.000  0.000
       0.000  1.000  0.000  0.000  0.000
       0.000  0.000  1.000  0.000  0.000
       0.000  0.000  0.000  1.000  0.000
       0.000  0.000  0.000  0.000  1.000
     occupation matrix ns (before diag.):
       0.600  0.000  0.000  0.000  0.000
       0.000  0.600  0.000  0.000  0.000
       0.000  0.000  0.600  0.000  0.000
       0.000  0.000  0.000  0.600  0.000
       0.000  0.000  0.000  0.000  0.600
     --------------------- ATOM   38 ----------------------
     Tr[ns] (up, down, total) =   5.00000  3.00000  8.00000
     Atomic magnetic moment =   2.00000
     SPIN  1
     eigenvalues:
       1.000  1.000  1.000  1.000  1.000
     eigenvectors (columns):
       1.000  0.000  0.000  0.000  0.000
       0.000  1.000  0.000  0.000  0.000
       0.000  0.000  1.000  0.000  0.000
       0.000  0.000  0.000  1.000  0.000
       0.000  0.000  0.000  0.000  1.000
     occupation matrix ns (before diag.):
       1.000  0.000  0.000  0.000  0.000
       0.000  1.000  0.000  0.000  0.000
       0.000  0.000  1.000  0.000  0.000
       0.000  0.000  0.000  1.000  0.000
       0.000  0.000  0.000  0.000  1.000
     SPIN  2
     eigenvalues:
       0.600  0.600  0.600  0.600  0.600
     eigenvectors (columns):
       1.000  0.000  0.000  0.000  0.000
       0.000  1.000  0.000  0.000  0.000
       0.000  0.000  1.000  0.000  0.000
       0.000  0.000  0.000  1.000  0.000
       0.000  0.000  0.000  0.000  1.000
     occupation matrix ns (before diag.):
       0.600  0.000  0.000  0.000  0.000
       0.000  0.600  0.000  0.000  0.000
       0.000  0.000  0.600  0.000  0.000
       0.000  0.000  0.000  0.600  0.000
       0.000  0.000  0.000  0.000  0.600
     --------------------- ATOM   39 ----------------------
     Tr[ns] (up, down, total) =   5.00000  3.00000  8.00000
     Atomic magnetic moment =   2.00000
     SPIN  1
     eigenvalues:
       1.000  1.000  1.000  1.000  1.000
     eigenvectors (columns):
       1.000  0.000  0.000  0.000  0.000
       0.000  1.000  0.000  0.000  0.000
       0.000  0.000  1.000  0.000  0.000
       0.000  0.000  0.000  1.000  0.000
       0.000  0.000  0.000  0.000  1.000
     occupation matrix ns (before diag.):
       1.000  0.000  0.000  0.000  0.000
       0.000  1.000  0.000  0.000  0.000
       0.000  0.000  1.000  0.000  0.000
       0.000  0.000  0.000  1.000  0.000
       0.000  0.000  0.000  0.000  1.000
     SPIN  2
     eigenvalues:
       0.600  0.600  0.600  0.600  0.600
     eigenvectors (columns):
       1.000  0.000  0.000  0.000  0.000
       0.000  1.000  0.000  0.000  0.000
       0.000  0.000  1.000  0.000  0.000
       0.000  0.000  0.000  1.000  0.000
       0.000  0.000  0.000  0.000  1.000
     occupation matrix ns (before diag.):
       0.600  0.000  0.000  0.000  0.000
       0.000  0.600  0.000  0.000  0.000
       0.000  0.000  0.600  0.000  0.000
       0.000  0.000  0.000  0.600  0.000
       0.000  0.000  0.000  0.000  0.600
     --------------------- ATOM   40 ----------------------
     Tr[ns] (up, down, total) =   5.00000  3.00000  8.00000
     Atomic magnetic moment =   2.00000
     SPIN  1
     eigenvalues:
       1.000  1.000  1.000  1.000  1.000
     eigenvectors (columns):
       1.000  0.000  0.000  0.000  0.000
       0.000  1.000  0.000  0.000  0.000
       0.000  0.000  1.000  0.000  0.000
       0.000  0.000  0.000  1.000  0.000
       0.000  0.000  0.000  0.000  1.000
     occupation matrix ns (before diag.):
       1.000  0.000  0.000  0.000  0.000
       0.000  1.000  0.000  0.000  0.000
       0.000  0.000  1.000  0.000  0.000
       0.000  0.000  0.000  1.000  0.000
       0.000  0.000  0.000  0.000  1.000
     SPIN  2
     eigenvalues:
       0.600  0.600  0.600  0.600  0.600
     eigenvectors (columns):
       1.000  0.000  0.000  0.000  0.000
       0.000  1.000  0.000  0.000  0.000
       0.000  0.000  1.000  0.000  0.000
       0.000  0.000  0.000  1.000  0.000
       0.000  0.000  0.000  0.000  1.000
     occupation matrix ns (before diag.):
       0.600  0.000  0.000  0.000  0.000
       0.000  0.600  0.000  0.000  0.000
       0.000  0.000  0.600  0.000  0.000
       0.000  0.000  0.000  0.600  0.000
       0.000  0.000  0.000  0.000  0.600
     --------------------- ATOM   41 ----------------------
     Tr[ns] (up, down, total) =   5.00000  3.00000  8.00000
     Atomic magnetic moment =   2.00000
     SPIN  1
     eigenvalues:
       1.000  1.000  1.000  1.000  1.000
     eigenvectors (columns):
       1.000  0.000  0.000  0.000  0.000
       0.000  1.000  0.000  0.000  0.000
       0.000  0.000  1.000  0.000  0.000
       0.000  0.000  0.000  1.000  0.000
       0.000  0.000  0.000  0.000  1.000
     occupation matrix ns (before diag.):
       1.000  0.000  0.000  0.000  0.000
       0.000  1.000  0.000  0.000  0.000
       0.000  0.000  1.000  0.000  0.000
       0.000  0.000  0.000  1.000  0.000
       0.000  0.000  0.000  0.000  1.000
     SPIN  2
     eigenvalues:
       0.600  0.600  0.600  0.600  0.600
     eigenvectors (columns):
       1.000  0.000  0.000  0.000  0.000
       0.000  1.000  0.000  0.000  0.000
       0.000  0.000  1.000  0.000  0.000
       0.000  0.000  0.000  1.000  0.000
       0.000  0.000  0.000  0.000  1.000
     occupation matrix ns (before diag.):
       0.600  0.000  0.000  0.000  0.000
       0.000  0.600  0.000  0.000  0.000
       0.000  0.000  0.600  0.000  0.000
       0.000  0.000  0.000  0.600  0.000
       0.000  0.000  0.000  0.000  0.600
     --------------------- ATOM   42 ----------------------
     Tr[ns] (up, down, total) =   5.00000  3.00000  8.00000
     Atomic magnetic moment =   2.00000
     SPIN  1
     eigenvalues:
       1.000  1.000  1.000  1.000  1.000
     eigenvectors (columns):
       1.000  0.000  0.000  0.000  0.000
       0.000  1.000  0.000  0.000  0.000
       0.000  0.000  1.000  0.000  0.000
       0.000  0.000  0.000  1.000  0.000
       0.000  0.000  0.000  0.000  1.000
     occupation matrix ns (before diag.):
       1.000  0.000  0.000  0.000  0.000
       0.000  1.000  0.000  0.000  0.000
       0.000  0.000  1.000  0.000  0.000
       0.000  0.000  0.000  1.000  0.000
       0.000  0.000  0.000  0.000  1.000
     SPIN  2
     eigenvalues:
       0.600  0.600  0.600  0.600  0.600
     eigenvectors (columns):
       1.000  0.000  0.000  0.000  0.000
       0.000  1.000  0.000  0.000  0.000
       0.000  0.000  1.000  0.000  0.000
       0.000  0.000  0.000  1.000  0.000
       0.000  0.000  0.000  0.000  1.000
     occupation matrix ns (before diag.):
       0.600  0.000  0.000  0.000  0.000
       0.000  0.600  0.000  0.000  0.000
       0.000  0.000  0.600  0.000  0.000
       0.000  0.000  0.000  0.600  0.000
       0.000  0.000  0.000  0.000  0.600
     --------------------- ATOM   43 ----------------------
     Tr[ns] (up, down, total) =   5.00000  3.00000  8.00000
     Atomic magnetic moment =   2.00000
     SPIN  1
     eigenvalues:
       1.000  1.000  1.000  1.000  1.000
     eigenvectors (columns):
       1.000  0.000  0.000  0.000  0.000
       0.000  1.000  0.000  0.000  0.000
       0.000  0.000  1.000  0.000  0.000
       0.000  0.000  0.000  1.000  0.000
       0.000  0.000  0.000  0.000  1.000
     occupation matrix ns (before diag.):
       1.000  0.000  0.000  0.000  0.000
       0.000  1.000  0.000  0.000  0.000
       0.000  0.000  1.000  0.000  0.000
       0.000  0.000  0.000  1.000  0.000
       0.000  0.000  0.000  0.000  1.000
     SPIN  2
     eigenvalues:
       0.600  0.600  0.600  0.600  0.600
     eigenvectors (columns):
       1.000  0.000  0.000  0.000  0.000
       0.000  1.000  0.000  0.000  0.000
       0.000  0.000  1.000  0.000  0.000
       0.000  0.000  0.000  1.000  0.000
       0.000  0.000  0.000  0.000  1.000
     occupation matrix ns (before diag.):
       0.600  0.000  0.000  0.000  0.000
       0.000  0.600  0.000  0.000  0.000
       0.000  0.000  0.600  0.000  0.000
       0.000  0.000  0.000  0.600  0.000
       0.000  0.000  0.000  0.000  0.600
     --------------------- ATOM   44 ----------------------
     Tr[ns] (up, down, total) =   5.00000  3.00000  8.00000
     Atomic magnetic moment =   2.00000
     SPIN  1
     eigenvalues:
       1.000  1.000  1.000  1.000  1.000
     eigenvectors (columns):
       1.000  0.000  0.000  0.000  0.000
       0.000  1.000  0.000  0.000  0.000
       0.000  0.000  1.000  0.000  0.000
       0.000  0.000  0.000  1.000  0.000
       0.000  0.000  0.000  0.000  1.000
     occupation matrix ns (before diag.):
       1.000  0.000  0.000  0.000  0.000
       0.000  1.000  0.000  0.000  0.000
       0.000  0.000  1.000  0.000  0.000
       0.000  0.000  0.000  1.000  0.000
       0.000  0.000  0.000  0.000  1.000
     SPIN  2
     eigenvalues:
       0.600  0.600  0.600  0.600  0.600
     eigenvectors (columns):
       1.000  0.000  0.000  0.000  0.000
       0.000  1.000  0.000  0.000  0.000
       0.000  0.000  1.000  0.000  0.000
       0.000  0.000  0.000  1.000  0.000
       0.000  0.000  0.000  0.000  1.000
     occupation matrix ns (before diag.):
       0.600  0.000  0.000  0.000  0.000
       0.000  0.600  0.000  0.000  0.000
       0.000  0.000  0.600  0.000  0.000
       0.000  0.000  0.000  0.600  0.000
       0.000  0.000  0.000  0.000  0.600
     --------------------- ATOM   45 ----------------------
     Tr[ns] (up, down, total) =   5.00000  3.00000  8.00000
     Atomic magnetic moment =   2.00000
     SPIN  1
     eigenvalues:
       1.000  1.000  1.000  1.000  1.000
     eigenvectors (columns):
       1.000  0.000  0.000  0.000  0.000
       0.000  1.000  0.000  0.000  0.000
       0.000  0.000  1.000  0.000  0.000
       0.000  0.000  0.000  1.000  0.000
       0.000  0.000  0.000  0.000  1.000
     occupation matrix ns (before diag.):
       1.000  0.000  0.000  0.000  0.000
       0.000  1.000  0.000  0.000  0.000
       0.000  0.000  1.000  0.000  0.000
       0.000  0.000  0.000  1.000  0.000
       0.000  0.000  0.000  0.000  1.000
     SPIN  2
     eigenvalues:
       0.600  0.600  0.600  0.600  0.600
     eigenvectors (columns):
       1.000  0.000  0.000  0.000  0.000
       0.000  1.000  0.000  0.000  0.000
       0.000  0.000  1.000  0.000  0.000
       0.000  0.000  0.000  1.000  0.000
       0.000  0.000  0.000  0.000  1.000
     occupation matrix ns (before diag.):
       0.600  0.000  0.000  0.000  0.000
       0.000  0.600  0.000  0.000  0.000
       0.000  0.000  0.600  0.000  0.000
       0.000  0.000  0.000  0.600  0.000
       0.000  0.000  0.000  0.000  0.600
     --------------------- ATOM   46 ----------------------
     Tr[ns] (up, down, total) =   5.00000  3.00000  8.00000
     Atomic magnetic moment =   2.00000
     SPIN  1
     eigenvalues:
       1.000  1.000  1.000  1.000  1.000
     eigenvectors (columns):
       1.000  0.000  0.000  0.000  0.000
       0.000  1.000  0.000  0.000  0.000
       0.000  0.000  1.000  0.000  0.000
       0.000  0.000  0.000  1.000  0.000
       0.000  0.000  0.000  0.000  1.000
     occupation matrix ns (before diag.):
       1.000  0.000  0.000  0.000  0.000
       0.000  1.000  0.000  0.000  0.000
       0.000  0.000  1.000  0.000  0.000
       0.000  0.000  0.000  1.000  0.000
       0.000  0.000  0.000  0.000  1.000
     SPIN  2
     eigenvalues:
       0.600  0.600  0.600  0.600  0.600
     eigenvectors (columns):
       1.000  0.000  0.000  0.000  0.000
       0.000  1.000  0.000  0.000  0.000
       0.000  0.000  1.000  0.000  0.000
       0.000  0.000  0.000  1.000  0.000
       0.000  0.000  0.000  0.000  1.000
     occupation matrix ns (before diag.):
       0.600  0.000  0.000  0.000  0.000
       0.000  0.600  0.000  0.000  0.000
       0.000  0.000  0.600  0.000  0.000
       0.000  0.000  0.000  0.600  0.000
       0.000  0.000  0.000  0.000  0.600
     --------------------- ATOM   47 ----------------------
     Tr[ns] (up, down, total) =   5.00000  3.00000  8.00000
     Atomic magnetic moment =   2.00000
     SPIN  1
     eigenvalues:
       1.000  1.000  1.000  1.000  1.000
     eigenvectors (columns):
       1.000  0.000  0.000  0.000  0.000
       0.000  1.000  0.000  0.000  0.000
       0.000  0.000  1.000  0.000  0.000
       0.000  0.000  0.000  1.000  0.000
       0.000  0.000  0.000  0.000  1.000
     occupation matrix ns (before diag.):
       1.000  0.000  0.000  0.000  0.000
       0.000  1.000  0.000  0.000  0.000
       0.000  0.000  1.000  0.000  0.000
       0.000  0.000  0.000  1.000  0.000
       0.000  0.000  0.000  0.000  1.000
     SPIN  2
     eigenvalues:
       0.600  0.600  0.600  0.600  0.600
     eigenvectors (columns):
       1.000  0.000  0.000  0.000  0.000
       0.000  1.000  0.000  0.000  0.000
       0.000  0.000  1.000  0.000  0.000
       0.000  0.000  0.000  1.000  0.000
       0.000  0.000  0.000  0.000  1.000
     occupation matrix ns (before diag.):
       0.600  0.000  0.000  0.000  0.000
       0.000  0.600  0.000  0.000  0.000
       0.000  0.000  0.600  0.000  0.000
       0.000  0.000  0.000  0.600  0.000
       0.000  0.000  0.000  0.000  0.600
     --------------------- ATOM   48 ----------------------
     Tr[ns] (up, down, total) =   5.00000  3.00000  8.00000
     Atomic magnetic moment =   2.00000
     SPIN  1
     eigenvalues:
       1.000  1.000  1.000  1.000  1.000
     eigenvectors (columns):
       1.000  0.000  0.000  0.000  0.000
       0.000  1.000  0.000  0.000  0.000
       0.000  0.000  1.000  0.000  0.000
       0.000  0.000  0.000  1.000  0.000
       0.000  0.000  0.000  0.000  1.000
     occupation matrix ns (before diag.):
       1.000  0.000  0.000  0.000  0.000
       0.000  1.000  0.000  0.000  0.000
       0.000  0.000  1.000  0.000  0.000
       0.000  0.000  0.000  1.000  0.000
       0.000  0.000  0.000  0.000  1.000
     SPIN  2
     eigenvalues:
       0.600  0.600  0.600  0.600  0.600
     eigenvectors (columns):
       1.000  0.000  0.000  0.000  0.000
       0.000  1.000  0.000  0.000  0.000
       0.000  0.000  1.000  0.000  0.000
       0.000  0.000  0.000  1.000  0.000
       0.000  0.000  0.000  0.000  1.000
     occupation matrix ns (before diag.):
       0.600  0.000  0.000  0.000  0.000
       0.000  0.600  0.000  0.000  0.000
       0.000  0.000  0.600  0.000  0.000
       0.000  0.000  0.000  0.600  0.000
       0.000  0.000  0.000  0.000  0.600
     --------------------- ATOM   49 ----------------------
     Tr[ns] (up, down, total) =   3.00000  5.00000  8.00000
     Atomic magnetic moment =  -2.00000
     SPIN  1
     eigenvalues:
       0.600  0.600  0.600  0.600  0.600
     eigenvectors (columns):
       1.000  0.000  0.000  0.000  0.000
       0.000  1.000  0.000  0.000  0.000
       0.000  0.000  1.000  0.000  0.000
       0.000  0.000  0.000  1.000  0.000
       0.000  0.000  0.000  0.000  1.000
     occupation matrix ns (before diag.):
       0.600  0.000  0.000  0.000  0.000
       0.000  0.600  0.000  0.000  0.000
       0.000  0.000  0.600  0.000  0.000
       0.000  0.000  0.000  0.600  0.000
       0.000  0.000  0.000  0.000  0.600
     SPIN  2
     eigenvalues:
       1.000  1.000  1.000  1.000  1.000
     eigenvectors (columns):
       1.000  0.000  0.000  0.000  0.000
       0.000  1.000  0.000  0.000  0.000
       0.000  0.000  1.000  0.000  0.000
       0.000  0.000  0.000  1.000  0.000
       0.000  0.000  0.000  0.000  1.000
     occupation matrix ns (before diag.):
       1.000  0.000  0.000  0.000  0.000
       0.000  1.000  0.000  0.000  0.000
       0.000  0.000  1.000  0.000  0.000
       0.000  0.000  0.000  1.000  0.000
       0.000  0.000  0.000  0.000  1.000
     --------------------- ATOM   50 ----------------------
     Tr[ns] (up, down, total) =   3.00000  5.00000  8.00000
     Atomic magnetic moment =  -2.00000
     SPIN  1
     eigenvalues:
       0.600  0.600  0.600  0.600  0.600
     eigenvectors (columns):
       1.000  0.000  0.000  0.000  0.000
       0.000  1.000  0.000  0.000  0.000
       0.000  0.000  1.000  0.000  0.000
       0.000  0.000  0.000  1.000  0.000
       0.000  0.000  0.000  0.000  1.000
     occupation matrix ns (before diag.):
       0.600  0.000  0.000  0.000  0.000
       0.000  0.600  0.000  0.000  0.000
       0.000  0.000  0.600  0.000  0.000
       0.000  0.000  0.000  0.600  0.000
       0.000  0.000  0.000  0.000  0.600
     SPIN  2
     eigenvalues:
       1.000  1.000  1.000  1.000  1.000
     eigenvectors (columns):
       1.000  0.000  0.000  0.000  0.000
       0.000  1.000  0.000  0.000  0.000
       0.000  0.000  1.000  0.000  0.000
       0.000  0.000  0.000  1.000  0.000
       0.000  0.000  0.000  0.000  1.000
     occupation matrix ns (before diag.):
       1.000  0.000  0.000  0.000  0.000
       0.000  1.000  0.000  0.000  0.000
       0.000  0.000  1.000  0.000  0.000
       0.000  0.000  0.000  1.000  0.000
       0.000  0.000  0.000  0.000  1.000
     --------------------- ATOM   51 ----------------------
     Tr[ns] (up, down, total) =   3.00000  5.00000  8.00000
     Atomic magnetic moment =  -2.00000
     SPIN  1
     eigenvalues:
       0.600  0.600  0.600  0.600  0.600
     eigenvectors (columns):
       1.000  0.000  0.000  0.000  0.000
       0.000  1.000  0.000  0.000  0.000
       0.000  0.000  1.000  0.000  0.000
       0.000  0.000  0.000  1.000  0.000
       0.000  0.000  0.000  0.000  1.000
     occupation matrix ns (before diag.):
       0.600  0.000  0.000  0.000  0.000
       0.000  0.600  0.000  0.000  0.000
       0.000  0.000  0.600  0.000  0.000
       0.000  0.000  0.000  0.600  0.000
       0.000  0.000  0.000  0.000  0.600
     SPIN  2
     eigenvalues:
       1.000  1.000  1.000  1.000  1.000
     eigenvectors (columns):
       1.000  0.000  0.000  0.000  0.000
       0.000  1.000  0.000  0.000  0.000
       0.000  0.000  1.000  0.000  0.000
       0.000  0.000  0.000  1.000  0.000
       0.000  0.000  0.000  0.000  1.000
     occupation matrix ns (before diag.):
       1.000  0.000  0.000  0.000  0.000
       0.000  1.000  0.000  0.000  0.000
       0.000  0.000  1.000  0.000  0.000
       0.000  0.000  0.000  1.000  0.000
       0.000  0.000  0.000  0.000  1.000
     --------------------- ATOM   52 ----------------------
     Tr[ns] (up, down, total) =   3.00000  5.00000  8.00000
     Atomic magnetic moment =  -2.00000
     SPIN  1
     eigenvalues:
       0.600  0.600  0.600  0.600  0.600
     eigenvectors (columns):
       1.000  0.000  0.000  0.000  0.000
       0.000  1.000  0.000  0.000  0.000
       0.000  0.000  1.000  0.000  0.000
       0.000  0.000  0.000  1.000  0.000
       0.000  0.000  0.000  0.000  1.000
     occupation matrix ns (before diag.):
       0.600  0.000  0.000  0.000  0.000
       0.000  0.600  0.000  0.000  0.000
       0.000  0.000  0.600  0.000  0.000
       0.000  0.000  0.000  0.600  0.000
       0.000  0.000  0.000  0.000  0.600
     SPIN  2
     eigenvalues:
       1.000  1.000  1.000  1.000  1.000
     eigenvectors (columns):
       1.000  0.000  0.000  0.000  0.000
       0.000  1.000  0.000  0.000  0.000
       0.000  0.000  1.000  0.000  0.000
       0.000  0.000  0.000  1.000  0.000
       0.000  0.000  0.000  0.000  1.000
     occupation matrix ns (before diag.):
       1.000  0.000  0.000  0.000  0.000
       0.000  1.000  0.000  0.000  0.000
       0.000  0.000  1.000  0.000  0.000
       0.000  0.000  0.000  1.000  0.000
       0.000  0.000  0.000  0.000  1.000
     --------------------- ATOM   53 ----------------------
     Tr[ns] (up, down, total) =   3.00000  5.00000  8.00000
     Atomic magnetic moment =  -2.00000
     SPIN  1
     eigenvalues:
       0.600  0.600  0.600  0.600  0.600
     eigenvectors (columns):
       1.000  0.000  0.000  0.000  0.000
       0.000  1.000  0.000  0.000  0.000
       0.000  0.000  1.000  0.000  0.000
       0.000  0.000  0.000  1.000  0.000
       0.000  0.000  0.000  0.000  1.000
     occupation matrix ns (before diag.):
       0.600  0.000  0.000  0.000  0.000
       0.000  0.600  0.000  0.000  0.000
       0.000  0.000  0.600  0.000  0.000
       0.000  0.000  0.000  0.600  0.000
       0.000  0.000  0.000  0.000  0.600
     SPIN  2
     eigenvalues:
       1.000  1.000  1.000  1.000  1.000
     eigenvectors (columns):
       1.000  0.000  0.000  0.000  0.000
       0.000  1.000  0.000  0.000  0.000
       0.000  0.000  1.000  0.000  0.000
       0.000  0.000  0.000  1.000  0.000
       0.000  0.000  0.000  0.000  1.000
     occupation matrix ns (before diag.):
       1.000  0.000  0.000  0.000  0.000
       0.000  1.000  0.000  0.000  0.000
       0.000  0.000  1.000  0.000  0.000
       0.000  0.000  0.000  1.000  0.000
       0.000  0.000  0.000  0.000  1.000
     --------------------- ATOM   54 ----------------------
     Tr[ns] (up, down, total) =   3.00000  5.00000  8.00000
     Atomic magnetic moment =  -2.00000
     SPIN  1
     eigenvalues:
       0.600  0.600  0.600  0.600  0.600
     eigenvectors (columns):
       1.000  0.000  0.000  0.000  0.000
       0.000  1.000  0.000  0.000  0.000
       0.000  0.000  1.000  0.000  0.000
       0.000  0.000  0.000  1.000  0.000
       0.000  0.000  0.000  0.000  1.000
     occupation matrix ns (before diag.):
       0.600  0.000  0.000  0.000  0.000
       0.000  0.600  0.000  0.000  0.000
       0.000  0.000  0.600  0.000  0.000
       0.000  0.000  0.000  0.600  0.000
       0.000  0.000  0.000  0.000  0.600
     SPIN  2
     eigenvalues:
       1.000  1.000  1.000  1.000  1.000
     eigenvectors (columns):
       1.000  0.000  0.000  0.000  0.000
       0.000  1.000  0.000  0.000  0.000
       0.000  0.000  1.000  0.000  0.000
       0.000  0.000  0.000  1.000  0.000
       0.000  0.000  0.000  0.000  1.000
     occupation matrix ns (before diag.):
       1.000  0.000  0.000  0.000  0.000
       0.000  1.000  0.000  0.000  0.000
       0.000  0.000  1.000  0.000  0.000
       0.000  0.000  0.000  1.000  0.000
       0.000  0.000  0.000  0.000  1.000
     --------------------- ATOM   55 ----------------------
     Tr[ns] (up, down, total) =   3.00000  5.00000  8.00000
     Atomic magnetic moment =  -2.00000
     SPIN  1
     eigenvalues:
       0.600  0.600  0.600  0.600  0.600
     eigenvectors (columns):
       1.000  0.000  0.000  0.000  0.000
       0.000  1.000  0.000  0.000  0.000
       0.000  0.000  1.000  0.000  0.000
       0.000  0.000  0.000  1.000  0.000
       0.000  0.000  0.000  0.000  1.000
     occupation matrix ns (before diag.):
       0.600  0.000  0.000  0.000  0.000
       0.000  0.600  0.000  0.000  0.000
       0.000  0.000  0.600  0.000  0.000
       0.000  0.000  0.000  0.600  0.000
       0.000  0.000  0.000  0.000  0.600
     SPIN  2
     eigenvalues:
       1.000  1.000  1.000  1.000  1.000
     eigenvectors (columns):
       1.000  0.000  0.000  0.000  0.000
       0.000  1.000  0.000  0.000  0.000
       0.000  0.000  1.000  0.000  0.000
       0.000  0.000  0.000  1.000  0.000
       0.000  0.000  0.000  0.000  1.000
     occupation matrix ns (before diag.):
       1.000  0.000  0.000  0.000  0.000
       0.000  1.000  0.000  0.000  0.000
       0.000  0.000  1.000  0.000  0.000
       0.000  0.000  0.000  1.000  0.000
       0.000  0.000  0.000  0.000  1.000
     --------------------- ATOM   56 ----------------------
     Tr[ns] (up, down, total) =   3.00000  5.00000  8.00000
     Atomic magnetic moment =  -2.00000
     SPIN  1
     eigenvalues:
       0.600  0.600  0.600  0.600  0.600
     eigenvectors (columns):
       1.000  0.000  0.000  0.000  0.000
       0.000  1.000  0.000  0.000  0.000
       0.000  0.000  1.000  0.000  0.000
       0.000  0.000  0.000  1.000  0.000
       0.000  0.000  0.000  0.000  1.000
     occupation matrix ns (before diag.):
       0.600  0.000  0.000  0.000  0.000
       0.000  0.600  0.000  0.000  0.000
       0.000  0.000  0.600  0.000  0.000
       0.000  0.000  0.000  0.600  0.000
       0.000  0.000  0.000  0.000  0.600
     SPIN  2
     eigenvalues:
       1.000  1.000  1.000  1.000  1.000
     eigenvectors (columns):
       1.000  0.000  0.000  0.000  0.000
       0.000  1.000  0.000  0.000  0.000
       0.000  0.000  1.000  0.000  0.000
       0.000  0.000  0.000  1.000  0.000
       0.000  0.000  0.000  0.000  1.000
     occupation matrix ns (before diag.):
       1.000  0.000  0.000  0.000  0.000
       0.000  1.000  0.000  0.000  0.000
       0.000  0.000  1.000  0.000  0.000
       0.000  0.000  0.000  1.000  0.000
       0.000  0.000  0.000  0.000  1.000
     --------------------- ATOM   57 ----------------------
     Tr[ns] (up, down, total) =   3.00000  5.00000  8.00000
     Atomic magnetic moment =  -2.00000
     SPIN  1
     eigenvalues:
       0.600  0.600  0.600  0.600  0.600
     eigenvectors (columns):
       1.000  0.000  0.000  0.000  0.000
       0.000  1.000  0.000  0.000  0.000
       0.000  0.000  1.000  0.000  0.000
       0.000  0.000  0.000  1.000  0.000
       0.000  0.000  0.000  0.000  1.000
     occupation matrix ns (before diag.):
       0.600  0.000  0.000  0.000  0.000
       0.000  0.600  0.000  0.000  0.000
       0.000  0.000  0.600  0.000  0.000
       0.000  0.000  0.000  0.600  0.000
       0.000  0.000  0.000  0.000  0.600
     SPIN  2
     eigenvalues:
       1.000  1.000  1.000  1.000  1.000
     eigenvectors (columns):
       1.000  0.000  0.000  0.000  0.000
       0.000  1.000  0.000  0.000  0.000
       0.000  0.000  1.000  0.000  0.000
       0.000  0.000  0.000  1.000  0.000
       0.000  0.000  0.000  0.000  1.000
     occupation matrix ns (before diag.):
       1.000  0.000  0.000  0.000  0.000
       0.000  1.000  0.000  0.000  0.000
       0.000  0.000  1.000  0.000  0.000
       0.000  0.000  0.000  1.000  0.000
       0.000  0.000  0.000  0.000  1.000
     --------------------- ATOM   58 ----------------------
     Tr[ns] (up, down, total) =   3.00000  5.00000  8.00000
     Atomic magnetic moment =  -2.00000
     SPIN  1
     eigenvalues:
       0.600  0.600  0.600  0.600  0.600
     eigenvectors (columns):
       1.000  0.000  0.000  0.000  0.000
       0.000  1.000  0.000  0.000  0.000
       0.000  0.000  1.000  0.000  0.000
       0.000  0.000  0.000  1.000  0.000
       0.000  0.000  0.000  0.000  1.000
     occupation matrix ns (before diag.):
       0.600  0.000  0.000  0.000  0.000
       0.000  0.600  0.000  0.000  0.000
       0.000  0.000  0.600  0.000  0.000
       0.000  0.000  0.000  0.600  0.000
       0.000  0.000  0.000  0.000  0.600
     SPIN  2
     eigenvalues:
       1.000  1.000  1.000  1.000  1.000
     eigenvectors (columns):
       1.000  0.000  0.000  0.000  0.000
       0.000  1.000  0.000  0.000  0.000
       0.000  0.000  1.000  0.000  0.000
       0.000  0.000  0.000  1.000  0.000
       0.000  0.000  0.000  0.000  1.000
     occupation matrix ns (before diag.):
       1.000  0.000  0.000  0.000  0.000
       0.000  1.000  0.000  0.000  0.000
       0.000  0.000  1.000  0.000  0.000
       0.000  0.000  0.000  1.000  0.000
       0.000  0.000  0.000  0.000  1.000
     --------------------- ATOM   59 ----------------------
     Tr[ns] (up, down, total) =   3.00000  5.00000  8.00000
     Atomic magnetic moment =  -2.00000
     SPIN  1
     eigenvalues:
       0.600  0.600  0.600  0.600  0.600
     eigenvectors (columns):
       1.000  0.000  0.000  0.000  0.000
       0.000  1.000  0.000  0.000  0.000
       0.000  0.000  1.000  0.000  0.000
       0.000  0.000  0.000  1.000  0.000
       0.000  0.000  0.000  0.000  1.000
     occupation matrix ns (before diag.):
       0.600  0.000  0.000  0.000  0.000
       0.000  0.600  0.000  0.000  0.000
       0.000  0.000  0.600  0.000  0.000
       0.000  0.000  0.000  0.600  0.000
       0.000  0.000  0.000  0.000  0.600
     SPIN  2
     eigenvalues:
       1.000  1.000  1.000  1.000  1.000
     eigenvectors (columns):
       1.000  0.000  0.000  0.000  0.000
       0.000  1.000  0.000  0.000  0.000
       0.000  0.000  1.000  0.000  0.000
       0.000  0.000  0.000  1.000  0.000
       0.000  0.000  0.000  0.000  1.000
     occupation matrix ns (before diag.):
       1.000  0.000  0.000  0.000  0.000
       0.000  1.000  0.000  0.000  0.000
       0.000  0.000  1.000  0.000  0.000
       0.000  0.000  0.000  1.000  0.000
       0.000  0.000  0.000  0.000  1.000
     --------------------- ATOM   60 ----------------------
     Tr[ns] (up, down, total) =   3.00000  5.00000  8.00000
     Atomic magnetic moment =  -2.00000
     SPIN  1
     eigenvalues:
       0.600  0.600  0.600  0.600  0.600
     eigenvectors (columns):
       1.000  0.000  0.000  0.000  0.000
       0.000  1.000  0.000  0.000  0.000
       0.000  0.000  1.000  0.000  0.000
       0.000  0.000  0.000  1.000  0.000
       0.000  0.000  0.000  0.000  1.000
     occupation matrix ns (before diag.):
       0.600  0.000  0.000  0.000  0.000
       0.000  0.600  0.000  0.000  0.000
       0.000  0.000  0.600  0.000  0.000
       0.000  0.000  0.000  0.600  0.000
       0.000  0.000  0.000  0.000  0.600
     SPIN  2
     eigenvalues:
       1.000  1.000  1.000  1.000  1.000
     eigenvectors (columns):
       1.000  0.000  0.000  0.000  0.000
       0.000  1.000  0.000  0.000  0.000
       0.000  0.000  1.000  0.000  0.000
       0.000  0.000  0.000  1.000  0.000
       0.000  0.000  0.000  0.000  1.000
     occupation matrix ns (before diag.):
       1.000  0.000  0.000  0.000  0.000
       0.000  1.000  0.000  0.000  0.000
       0.000  0.000  1.000  0.000  0.000
       0.000  0.000  0.000  1.000  0.000
       0.000  0.000  0.000  0.000  1.000
     --------------------- ATOM   61 ----------------------
     Tr[ns] (up, down, total) =   3.00000  5.00000  8.00000
     Atomic magnetic moment =  -2.00000
     SPIN  1
     eigenvalues:
       0.600  0.600  0.600  0.600  0.600
     eigenvectors (columns):
       1.000  0.000  0.000  0.000  0.000
       0.000  1.000  0.000  0.000  0.000
       0.000  0.000  1.000  0.000  0.000
       0.000  0.000  0.000  1.000  0.000
       0.000  0.000  0.000  0.000  1.000
     occupation matrix ns (before diag.):
       0.600  0.000  0.000  0.000  0.000
       0.000  0.600  0.000  0.000  0.000
       0.000  0.000  0.600  0.000  0.000
       0.000  0.000  0.000  0.600  0.000
       0.000  0.000  0.000  0.000  0.600
     SPIN  2
     eigenvalues:
       1.000  1.000  1.000  1.000  1.000
     eigenvectors (columns):
       1.000  0.000  0.000  0.000  0.000
       0.000  1.000  0.000  0.000  0.000
       0.000  0.000  1.000  0.000  0.000
       0.000  0.000  0.000  1.000  0.000
       0.000  0.000  0.000  0.000  1.000
     occupation matrix ns (before diag.):
       1.000  0.000  0.000  0.000  0.000
       0.000  1.000  0.000  0.000  0.000
       0.000  0.000  1.000  0.000  0.000
       0.000  0.000  0.000  1.000  0.000
       0.000  0.000  0.000  0.000  1.000
     --------------------- ATOM   62 ----------------------
     Tr[ns] (up, down, total) =   3.00000  5.00000  8.00000
     Atomic magnetic moment =  -2.00000
     SPIN  1
     eigenvalues:
       0.600  0.600  0.600  0.600  0.600
     eigenvectors (columns):
       1.000  0.000  0.000  0.000  0.000
       0.000  1.000  0.000  0.000  0.000
       0.000  0.000  1.000  0.000  0.000
       0.000  0.000  0.000  1.000  0.000
       0.000  0.000  0.000  0.000  1.000
     occupation matrix ns (before diag.):
       0.600  0.000  0.000  0.000  0.000
       0.000  0.600  0.000  0.000  0.000
       0.000  0.000  0.600  0.000  0.000
       0.000  0.000  0.000  0.600  0.000
       0.000  0.000  0.000  0.000  0.600
     SPIN  2
     eigenvalues:
       1.000  1.000  1.000  1.000  1.000
     eigenvectors (columns):
       1.000  0.000  0.000  0.000  0.000
       0.000  1.000  0.000  0.000  0.000
       0.000  0.000  1.000  0.000  0.000
       0.000  0.000  0.000  1.000  0.000
       0.000  0.000  0.000  0.000  1.000
     occupation matrix ns (before diag.):
       1.000  0.000  0.000  0.000  0.000
       0.000  1.000  0.000  0.000  0.000
       0.000  0.000  1.000  0.000  0.000
       0.000  0.000  0.000  1.000  0.000
       0.000  0.000  0.000  0.000  1.000
     --------------------- ATOM   63 ----------------------
     Tr[ns] (up, down, total) =   3.00000  5.00000  8.00000
     Atomic magnetic moment =  -2.00000
     SPIN  1
     eigenvalues:
       0.600  0.600  0.600  0.600  0.600
     eigenvectors (columns):
       1.000  0.000  0.000  0.000  0.000
       0.000  1.000  0.000  0.000  0.000
       0.000  0.000  1.000  0.000  0.000
       0.000  0.000  0.000  1.000  0.000
       0.000  0.000  0.000  0.000  1.000
     occupation matrix ns (before diag.):
       0.600  0.000  0.000  0.000  0.000
       0.000  0.600  0.000  0.000  0.000
       0.000  0.000  0.600  0.000  0.000
       0.000  0.000  0.000  0.600  0.000
       0.000  0.000  0.000  0.000  0.600
     SPIN  2
     eigenvalues:
       1.000  1.000  1.000  1.000  1.000
     eigenvectors (columns):
       1.000  0.000  0.000  0.000  0.000
       0.000  1.000  0.000  0.000  0.000
       0.000  0.000  1.000  0.000  0.000
       0.000  0.000  0.000  1.000  0.000
       0.000  0.000  0.000  0.000  1.000
     occupation matrix ns (before diag.):
       1.000  0.000  0.000  0.000  0.000
       0.000  1.000  0.000  0.000  0.000
       0.000  0.000  1.000  0.000  0.000
       0.000  0.000  0.000  1.000  0.000
       0.000  0.000  0.000  0.000  1.000
     --------------------- ATOM   64 ----------------------
     Tr[ns] (up, down, total) =   3.00000  5.00000  8.00000
     Atomic magnetic moment =  -2.00000
     SPIN  1
     eigenvalues:
       0.600  0.600  0.600  0.600  0.600
     eigenvectors (columns):
       1.000  0.000  0.000  0.000  0.000
       0.000  1.000  0.000  0.000  0.000
       0.000  0.000  1.000  0.000  0.000
       0.000  0.000  0.000  1.000  0.000
       0.000  0.000  0.000  0.000  1.000
     occupation matrix ns (before diag.):
       0.600  0.000  0.000  0.000  0.000
       0.000  0.600  0.000  0.000  0.000
       0.000  0.000  0.600  0.000  0.000
       0.000  0.000  0.000  0.600  0.000
       0.000  0.000  0.000  0.000  0.600
     SPIN  2
     eigenvalues:
       1.000  1.000  1.000  1.000  1.000
     eigenvectors (columns):
       1.000  0.000  0.000  0.000  0.000
       0.000  1.000  0.000  0.000  0.000
       0.000  0.000  1.000  0.000  0.000
       0.000  0.000  0.000  1.000  0.000
       0.000  0.000  0.000  0.000  1.000
     occupation matrix ns (before diag.):
       1.000  0.000  0.000  0.000  0.000
       0.000  1.000  0.000  0.000  0.000
       0.000  0.000  1.000  0.000  0.000
       0.000  0.000  0.000  1.000  0.000
       0.000  0.000  0.000  0.000  1.000

     Number of occupied Hubbard levels =  256.0000
 Atomic wfc used for LDA+U Projector are NOT orthogonalized
     Starting wfcs are  448 randomized atomic wfcs

     total cpu time spent up to now is        7.7 secs

     per-process dynamical memory:   229.7 Mb

     Self-consistent Calculation

     iteration #  1     ecut=   254.24 Ry     beta= 0.25
     Davidson diagonalization with overlap

---- Real-time Memory Report at c_bands before calling an iterative solver
           291 MiB given to the printing process from OS
           225 MiB allocation reported by mallinfo(arena+hblkhd)
        241775 MiB available memory on the node where the printing process lives
------------------
     ethr =  1.00E-02,  avg # of iterations =  8.5

     Hubbard parameters (eV):
     U(  2) =  6.5000
     U(  3) =  6.5000

     ================= HUBBARD OCCUPATIONS ================
     --------------------- ATOM   33 ----------------------
     Tr[ns] (up, down, total) =   4.98865  0.68805  5.67670
     Atomic magnetic moment =   4.30060
     SPIN  1
     eigenvalues:
       0.997  0.997  0.998  0.998  0.998
     eigenvectors (columns):
       0.348  0.928  0.000  0.129 -0.023
      -0.106 -0.018 -0.577  0.522  0.619
       0.068 -0.083 -0.577  0.275 -0.761
       0.928 -0.348 -0.000  0.023  0.129
      -0.038 -0.100  0.577  0.797 -0.143
     occupation matrix ns (before diag.):
       0.997  0.000  0.000 -0.000  0.000
       0.000  0.998 -0.000  0.000  0.000
       0.000 -0.000  0.998 -0.000  0.000
      -0.000  0.000 -0.000  0.997 -0.000
       0.000  0.000  0.000 -0.000  0.998
     SPIN  2
     eigenvalues:
       0.087  0.087  0.150  0.150  0.212
     eigenvectors (columns):
      -0.541 -0.840 -0.037  0.005  0.000
      -0.030  0.001  0.310 -0.755 -0.577
       0.014 -0.027  0.499  0.646 -0.577
      -0.840  0.541  0.005  0.037 -0.000
      -0.016 -0.025  0.809 -0.109  0.577
     occupation matrix ns (before diag.):
       0.087 -0.001 -0.001 -0.000 -0.002
      -0.001  0.171  0.021 -0.002 -0.021
      -0.001  0.021  0.171  0.002 -0.021
      -0.000 -0.002  0.002  0.087 -0.000
      -0.002 -0.021 -0.021 -0.000  0.171
     --------------------- ATOM   34 ----------------------
     Tr[ns] (up, down, total) =   4.98866  0.69018  5.67884
     Atomic magnetic moment =   4.29848
     SPIN  1
     eigenvalues:
       0.997  0.997  0.998  0.998  0.998
     eigenvectors (columns):
      -0.858  0.496  0.000 -0.066  0.114
      -0.000 -0.107 -0.590 -0.801 -0.000
       0.093  0.055 -0.571  0.413  0.701
       0.496  0.858  0.000 -0.115 -0.066
       0.093 -0.055  0.571 -0.413  0.701
     occupation matrix ns (before diag.):
       0.997  0.000  0.000  0.000  0.000
       0.000  0.998 -0.000  0.000  0.000
       0.000 -0.000  0.998 -0.000  0.000
       0.000  0.000 -0.000  0.997  0.000
       0.000  0.000  0.000  0.000  0.998
     SPIN  2
     eigenvalues:
       0.087  0.087  0.151  0.152  0.212
     eigenvectors (columns):
      -0.865  0.500  0.018  0.033  0.000
       0.000  0.030 -0.813  0.000 -0.581
      -0.027 -0.015  0.411 -0.707 -0.575
       0.500  0.865  0.032 -0.019  0.000
      -0.027  0.015 -0.411 -0.707  0.575
     occupation matrix ns (before diag.):
       0.087 -0.001 -0.001  0.000 -0.002
      -0.001  0.172  0.020 -0.002 -0.020
      -0.001  0.020  0.172  0.002 -0.020
       0.000 -0.002  0.002  0.087  0.000
      -0.002 -0.020 -0.020  0.000  0.172
     --------------------- ATOM   35 ----------------------
     Tr[ns] (up, down, total) =   4.98865  0.68851  5.67716
     Atomic magnetic moment =   4.30014
     SPIN  1
     eigenvalues:
       0.997  0.997  0.998  0.998  0.998
     eigenvectors (columns):
      -0.858  0.495 -0.002 -0.068  0.114
      -0.000 -0.112 -0.577 -0.809 -0.000
       0.093  0.053 -0.577  0.405  0.701
       0.496  0.858 -0.003 -0.117 -0.066
       0.093 -0.053  0.577 -0.405  0.701
     occupation matrix ns (before diag.):
       0.997  0.000  0.000  0.000  0.000
       0.000  0.998 -0.000  0.000  0.000
       0.000 -0.000  0.998 -0.000  0.000
       0.000  0.000 -0.000  0.997 -0.000
       0.000  0.000  0.000 -0.000  0.998
     SPIN  2
     eigenvalues:
       0.087  0.087  0.151  0.152  0.212
     eigenvectors (columns):
      -0.500 -0.865 -0.032 -0.019  0.000
      -0.032 -0.000  0.000  0.816 -0.577
       0.015 -0.026  0.707 -0.408 -0.578
      -0.865  0.500  0.019 -0.034  0.001
      -0.015 -0.026  0.707  0.408  0.578
     occupation matrix ns (before diag.):
       0.087 -0.001 -0.001 -0.000 -0.002
      -0.001  0.172  0.020 -0.002 -0.020
      -0.001  0.020  0.171  0.002 -0.021
      -0.000 -0.002  0.002  0.087  0.000
      -0.002 -0.020 -0.021  0.000  0.171
     --------------------- ATOM   36 ----------------------
     Tr[ns] (up, down, total) =   4.98866  0.69018  5.67884
     Atomic magnetic moment =   4.29848
     SPIN  1
     eigenvalues:
       0.997  0.997  0.998  0.998  0.998
     eigenvectors (columns):
      -0.858  0.496  0.000 -0.066  0.114
       0.093  0.055 -0.571  0.413  0.701
      -0.000 -0.107 -0.590 -0.801 -0.000
      -0.496 -0.858 -0.000  0.115  0.066
       0.093 -0.055  0.571 -0.413  0.701
     occupation matrix ns (before diag.):
       0.997  0.000  0.000 -0.000  0.000
       0.000  0.998 -0.000  0.000  0.000
       0.000 -0.000  0.998 -0.000  0.000
      -0.000  0.000 -0.000  0.997 -0.000
       0.000  0.000  0.000 -0.000  0.998
     SPIN  2
     eigenvalues:
       0.087  0.087  0.151  0.152  0.212
     eigenvectors (columns):
      -0.865  0.500 -0.018 -0.033  0.000
      -0.027 -0.015 -0.411  0.707 -0.575
       0.000  0.030  0.813 -0.000 -0.581
      -0.500 -0.865  0.032 -0.019 -0.000
      -0.027  0.015  0.411  0.707  0.575
     occupation matrix ns (before diag.):
       0.087 -0.001 -0.001 -0.000 -0.002
      -0.001  0.172  0.020 -0.002 -0.020
      -0.001  0.020  0.172  0.002 -0.020
      -0.000 -0.002  0.002  0.087 -0.000
      -0.002 -0.020 -0.020 -0.000  0.172
     --------------------- ATOM   37 ----------------------
     Tr[ns] (up, down, total) =   4.98865  0.69129  5.67994
     Atomic magnetic moment =   4.29736
     SPIN  1
     eigenvalues:
       0.997  0.997  0.998  0.998  0.998
     eigenvectors (columns):
       0.000  0.991 -0.000 -0.000 -0.133
      -0.094 -0.053  0.581 -0.701 -0.399
       0.094 -0.053  0.581  0.701 -0.399
       0.991 -0.000  0.000 -0.133  0.000
      -0.000 -0.109 -0.569 -0.000 -0.815
     occupation matrix ns (before diag.):
       0.997  0.000  0.000 -0.000  0.000
       0.000  0.998 -0.000  0.000  0.000
       0.000 -0.000  0.998 -0.000  0.000
      -0.000  0.000 -0.000  0.997 -0.000
       0.000  0.000  0.000 -0.000  0.998
     SPIN  2
     eigenvalues:
       0.087  0.087  0.151  0.153  0.213
     eigenvectors (columns):
      -0.000  0.999 -0.037  0.000 -0.000
      -0.027  0.015  0.410 -0.707 -0.576
       0.027  0.015  0.410  0.707 -0.576
      -0.999 -0.000 -0.000  0.038 -0.000
      -0.000  0.030  0.814 -0.000  0.580
     occupation matrix ns (before diag.):
       0.087 -0.001 -0.001 -0.000 -0.002
      -0.001  0.172  0.020 -0.002 -0.021
      -0.001  0.020  0.172  0.002 -0.021
      -0.000 -0.002  0.002  0.087 -0.000
      -0.002 -0.021 -0.021 -0.000  0.172
     --------------------- ATOM   38 ----------------------
     Tr[ns] (up, down, total) =   4.98865  0.69129  5.67994
     Atomic magnetic moment =   4.29736
     SPIN  1
     eigenvalues:
       0.997  0.997  0.998  0.998  0.998
     eigenvectors (columns):
      -0.858 -0.496  0.000 -0.115  0.066
       0.094 -0.053  0.581 -0.701 -0.399
      -0.000  0.109  0.569 -0.000  0.815
      -0.496  0.858 -0.000 -0.066 -0.115
       0.094  0.053 -0.581 -0.701  0.399
     occupation matrix ns (before diag.):
       0.997  0.000  0.000 -0.000  0.000
       0.000  0.998 -0.000  0.000  0.000
       0.000 -0.000  0.998 -0.000  0.000
      -0.000  0.000 -0.000  0.997  0.000
       0.000  0.000  0.000  0.000  0.998
     SPIN  2
     eigenvalues:
       0.087  0.087  0.151  0.153  0.213
     eigenvectors (columns):
       0.865 -0.500 -0.018 -0.033  0.000
       0.027  0.015 -0.410  0.707 -0.576
      -0.000 -0.030  0.814 -0.000 -0.580
       0.500  0.865  0.032 -0.019 -0.000
       0.027 -0.015  0.410  0.707  0.576
     occupation matrix ns (before diag.):
       0.087 -0.001 -0.001  0.000 -0.002
      -0.001  0.172  0.021 -0.002 -0.020
      -0.001  0.021  0.172  0.002 -0.021
       0.000 -0.002  0.002  0.087 -0.000
      -0.002 -0.020 -0.021 -0.000  0.172
     --------------------- ATOM   39 ----------------------
     Tr[ns] (up, down, total) =   4.98865  0.68851  5.67716
     Atomic magnetic moment =   4.30014
     SPIN  1
     eigenvalues:
       0.997  0.997  0.998  0.998  0.998
     eigenvectors (columns):
      -0.858  0.495 -0.002 -0.068  0.114
       0.093  0.053 -0.577  0.405  0.701
      -0.000 -0.112 -0.577 -0.809 -0.000
      -0.496 -0.858  0.003  0.117  0.066
       0.093 -0.053  0.577 -0.405  0.701
     occupation matrix ns (before diag.):
       0.997  0.000  0.000 -0.000  0.000
       0.000  0.998 -0.000  0.000  0.000
       0.000 -0.000  0.998 -0.000  0.000
      -0.000  0.000 -0.000  0.997  0.000
       0.000  0.000  0.000  0.000  0.998
     SPIN  2
     eigenvalues:
       0.087  0.087  0.151  0.152  0.212
     eigenvectors (columns):
       0.500  0.865 -0.032 -0.019  0.000
      -0.015  0.026  0.707 -0.408 -0.578
       0.032  0.000  0.000  0.816 -0.577
      -0.865  0.500 -0.019  0.034 -0.001
       0.015  0.026  0.707  0.408  0.578
     occupation matrix ns (before diag.):
       0.087 -0.001 -0.001  0.000 -0.002
      -0.001  0.171  0.020 -0.002 -0.021
      -0.001  0.020  0.172  0.002 -0.020
       0.000 -0.002  0.002  0.087 -0.000
      -0.002 -0.021 -0.020 -0.000  0.171
     --------------------- ATOM   40 ----------------------
     Tr[ns] (up, down, total) =   4.98865  0.69129  5.67994
     Atomic magnetic moment =   4.29736
     SPIN  1
     eigenvalues:
       0.997  0.997  0.998  0.998  0.998
     eigenvectors (columns):
      -0.858 -0.496  0.000 -0.115  0.066
      -0.000  0.109  0.569 -0.000  0.815
       0.094 -0.053  0.581 -0.701 -0.399
       0.496 -0.858  0.000  0.066  0.115
       0.094  0.053 -0.581 -0.701  0.399
     occupation matrix ns (before diag.):
       0.997  0.000  0.000  0.000  0.000
       0.000  0.998 -0.000  0.000  0.000
       0.000 -0.000  0.998 -0.000  0.000
       0.000  0.000 -0.000  0.997 -0.000
       0.000  0.000  0.000 -0.000  0.998
     SPIN  2
     eigenvalues:
       0.087  0.087  0.151  0.153  0.213
     eigenvectors (columns):
      -0.865  0.500  0.018  0.033  0.000
      -0.000  0.030 -0.814  0.000 -0.580
      -0.027 -0.015  0.410 -0.707 -0.576
       0.500  0.865  0.032 -0.019  0.000
      -0.027  0.015 -0.410 -0.707  0.576
     occupation matrix ns (before diag.):
       0.087 -0.001 -0.001 -0.000 -0.002
      -0.001  0.172  0.021 -0.002 -0.021
      -0.001  0.021  0.172  0.002 -0.020
      -0.000 -0.002  0.002  0.087  0.000
      -0.002 -0.021 -0.020  0.000  0.172
     --------------------- ATOM   41 ----------------------
     Tr[ns] (up, down, total) =   4.98865  0.68851  5.67716
     Atomic magnetic moment =   4.30014
     SPIN  1
     eigenvalues:
       0.997  0.997  0.998  0.998  0.998
     eigenvectors (columns):
       0.000  0.991  0.003  0.135 -0.000
      -0.093 -0.053 -0.577  0.405  0.701
       0.093 -0.053 -0.577  0.405 -0.701
       0.991 -0.000 -0.000  0.000  0.132
      -0.000 -0.112  0.577  0.809 -0.000
     occupation matrix ns (before diag.):
       0.997  0.000  0.000 -0.000  0.000
       0.000  0.998 -0.000  0.000  0.000
       0.000 -0.000  0.998 -0.000  0.000
      -0.000  0.000 -0.000  0.997 -0.000
       0.000  0.000  0.000 -0.000  0.998
     SPIN  2
     eigenvalues:
       0.087  0.087  0.151  0.152  0.212
     eigenvectors (columns):
       0.999 -0.000  0.000 -0.039 -0.001
       0.015  0.026 -0.707  0.408 -0.578
       0.015 -0.026  0.707  0.408 -0.578
       0.000  0.999  0.037 -0.000 -0.000
       0.032 -0.000  0.000  0.816  0.577
     occupation matrix ns (before diag.):
       0.087 -0.001 -0.001 -0.000 -0.002
      -0.001  0.171  0.021 -0.002 -0.020
      -0.001  0.021  0.171  0.002 -0.020
      -0.000 -0.002  0.002  0.087 -0.000
      -0.002 -0.020 -0.020 -0.000  0.172
     --------------------- ATOM   42 ----------------------
     Tr[ns] (up, down, total) =   4.98866  0.69018  5.67884
     Atomic magnetic moment =   4.29848
     SPIN  1
     eigenvalues:
       0.997  0.997  0.998  0.998  0.998
     eigenvectors (columns):
      -0.858  0.496  0.000 -0.066  0.114
      -0.000 -0.107 -0.590 -0.801 -0.000
       0.093  0.055 -0.571  0.413  0.701
       0.496  0.858  0.000 -0.115 -0.066
       0.093 -0.055  0.571 -0.413  0.701
     occupation matrix ns (before diag.):
       0.997  0.000  0.000  0.000  0.000
       0.000  0.998 -0.000  0.000  0.000
       0.000 -0.000  0.998 -0.000  0.000
       0.000  0.000 -0.000  0.997  0.000
       0.000  0.000  0.000  0.000  0.998
     SPIN  2
     eigenvalues:
       0.087  0.087  0.151  0.152  0.212
     eigenvectors (columns):
      -0.865  0.500  0.018  0.033  0.000
       0.000  0.030 -0.813  0.000 -0.581
      -0.027 -0.015  0.411 -0.707 -0.575
       0.500  0.865  0.032 -0.019  0.000
      -0.027  0.015 -0.411 -0.707  0.575
     occupation matrix ns (before diag.):
       0.087 -0.001 -0.001  0.000 -0.002
      -0.001  0.172  0.020 -0.002 -0.020
      -0.001  0.020  0.172  0.002 -0.020
       0.000 -0.002  0.002  0.087  0.000
      -0.002 -0.020 -0.020  0.000  0.172
     --------------------- ATOM   43 ----------------------
     Tr[ns] (up, down, total) =   4.98866  0.69018  5.67884
     Atomic magnetic moment =   4.29848
     SPIN  1
     eigenvalues:
       0.997  0.997  0.998  0.998  0.998
     eigenvectors (columns):
       0.000  0.991 -0.000  0.133 -0.000
      -0.093 -0.055 -0.571  0.413  0.701
       0.093 -0.055 -0.571  0.413 -0.701
       0.991 -0.000 -0.000  0.000  0.132
      -0.000 -0.107  0.590  0.801 -0.000
     occupation matrix ns (before diag.):
       0.997  0.000  0.000 -0.000  0.000
       0.000  0.998 -0.000  0.000  0.000
       0.000 -0.000  0.998 -0.000  0.000
      -0.000  0.000 -0.000  0.997 -0.000
       0.000  0.000  0.000 -0.000  0.998
     SPIN  2
     eigenvalues:
       0.087  0.087  0.151  0.152  0.212
     eigenvectors (columns):
      -0.000  0.999 -0.037  0.000 -0.000
      -0.027  0.015  0.411 -0.707 -0.575
       0.027  0.015  0.411  0.707 -0.575
      -0.999 -0.000 -0.000  0.038 -0.000
      -0.000  0.030  0.813 -0.000  0.581
     occupation matrix ns (before diag.):
       0.087 -0.001 -0.001 -0.000 -0.002
      -0.001  0.172  0.020 -0.002 -0.020
      -0.001  0.020  0.172  0.002 -0.020
      -0.000 -0.002  0.002  0.087 -0.000
      -0.002 -0.020 -0.020 -0.000  0.172
     --------------------- ATOM   44 ----------------------
     Tr[ns] (up, down, total) =   4.98866  0.69018  5.67884
     Atomic magnetic moment =   4.29848
     SPIN  1
     eigenvalues:
       0.997  0.997  0.998  0.998  0.998
     eigenvectors (columns):
      -0.858  0.496  0.000 -0.066  0.114
       0.093  0.055 -0.571  0.413  0.701
      -0.000 -0.107 -0.590 -0.801 -0.000
      -0.496 -0.858 -0.000  0.115  0.066
       0.093 -0.055  0.571 -0.413  0.701
     occupation matrix ns (before diag.):
       0.997  0.000  0.000 -0.000  0.000
       0.000  0.998 -0.000  0.000  0.000
       0.000 -0.000  0.998 -0.000  0.000
      -0.000  0.000 -0.000  0.997 -0.000
       0.000  0.000  0.000 -0.000  0.998
     SPIN  2
     eigenvalues:
       0.087  0.087  0.151  0.152  0.212
     eigenvectors (columns):
      -0.865  0.500 -0.018 -0.033  0.000
      -0.027 -0.015 -0.411  0.707 -0.575
       0.000  0.030  0.813 -0.000 -0.581
      -0.500 -0.865  0.032 -0.019 -0.000
      -0.027  0.015  0.411  0.707  0.575
     occupation matrix ns (before diag.):
       0.087 -0.001 -0.001 -0.000 -0.002
      -0.001  0.172  0.020 -0.002 -0.020
      -0.001  0.020  0.172  0.002 -0.020
      -0.000 -0.002  0.002  0.087 -0.000
[...]
     atom   41 type  2   force =    -0.00000890   -0.00000137   -0.00000185
     atom   42 type  2   force =    -0.00000187   -0.00000013    0.00000244
     atom   43 type  2   force =     0.00000427   -0.00000466   -0.00000387
     atom   44 type  2   force =     0.00001388    0.00000674    0.00000340
     atom   45 type  2   force =    -0.00000151   -0.00000216    0.00000457
     atom   46 type  2   force =     0.00000165   -0.00000067    0.00000084
     atom   47 type  2   force =    -0.00000556    0.00000015   -0.00000962
     atom   48 type  2   force =    -0.00000431    0.00000727    0.00000305
     atom   49 type  3   force =    -0.00000187   -0.00000010    0.00000232
     atom   50 type  3   force =     0.00000636   -0.00000486   -0.00000171
     atom   51 type  3   force =     0.00000162   -0.00000171    0.00000328
     atom   52 type  3   force =    -0.00000368    0.00000339    0.00000589
     atom   53 type  3   force =     0.00000985   -0.00000783   -0.00000400
     atom   54 type  3   force =     0.00000839   -0.00000347   -0.00000669
     atom   55 type  3   force =    -0.00000250    0.00000134   -0.00000049
     atom   56 type  3   force =    -0.00000357   -0.00000744    0.00000288
     atom   57 type  3   force =    -0.00000101    0.00000153   -0.00000112
     atom   58 type  3   force =    -0.00001032    0.00000400    0.00000194
     atom   59 type  3   force =    -0.00000341   -0.00000113    0.00000023
     atom   60 type  3   force =     0.00000242    0.00000277   -0.00000297
     atom   61 type  3   force =    -0.00001151    0.00000661    0.00000792
     atom   62 type  3   force =     0.00000274    0.00000574   -0.00000428
     atom   63 type  3   force =     0.00000195    0.00000027   -0.00000149
     atom   64 type  3   force =     0.00000498   -0.00000039   -0.00000291
     The core correction contribution to forces
     atom    1 type  1   force =     0.00000017    0.00000018    0.00000020
     atom    2 type  1   force =    -0.00000002   -0.00000008    0.00000003
     atom    3 type  1   force =    -0.00000000   -0.00000012    0.00000002
     atom    4 type  1   force =    -0.00000004   -0.00000010    0.00000003
     atom    5 type  1   force =    -0.00000005    0.00000002   -0.00000001
     atom    6 type  1   force =    -0.00000005    0.00000001   -0.00000010
     atom    7 type  1   force =    -0.00000013   -0.00000001   -0.00000001
     atom    8 type  1   force =    -0.00000002   -0.00000002   -0.00000008
     atom    9 type  1   force =     0.00000015    0.00000016    0.00000016
     atom   10 type  1   force =     0.00000002    0.00000004    0.00000001
     atom   11 type  1   force =     0.00000001    0.00000004    0.00000009
     atom   12 type  1   force =     0.00000013    0.00000016    0.00000012
     atom   13 type  1   force =    -0.00000000    0.00000004    0.00000004
     atom   14 type  1   force =     0.00000014    0.00000018    0.00000015
     atom   15 type  1   force =     0.00000005   -0.00000005   -0.00000004
     atom   16 type  1   force =    -0.00000004    0.00000002   -0.00000008
     atom   17 type  1   force =     0.00000010    0.00000005   -0.00000005
     atom   18 type  1   force =    -0.00000004    0.00000008    0.00000003
     atom   19 type  1   force =     0.00000009   -0.00000002    0.00000007
     atom   20 type  1   force =    -0.00000015   -0.00000016   -0.00000015
     atom   21 type  1   force =    -0.00000008   -0.00000004   -0.00000004
     atom   22 type  1   force =    -0.00000012   -0.00000019   -0.00000016
     atom   23 type  1   force =    -0.00000001   -0.00000003   -0.00000006
     atom   24 type  1   force =    -0.00000000   -0.00000003   -0.00000001
     atom   25 type  1   force =     0.00000002    0.00000000    0.00000005
     atom   26 type  1   force =    -0.00000015   -0.00000015   -0.00000014
     atom   27 type  1   force =    -0.00000001   -0.00000001    0.00000010
     atom   28 type  1   force =    -0.00000003    0.00000010   -0.00000001
     atom   29 type  1   force =    -0.00000001    0.00000009   -0.00000001
     atom   30 type  1   force =     0.00000011    0.00000002    0.00000000
     atom   31 type  1   force =     0.00000015   -0.00000002    0.00000003
     atom   32 type  1   force =    -0.00000016   -0.00000020   -0.00000019
     atom   33 type  2   force =     0.00000011    0.00000000   -0.00000002
     atom   34 type  2   force =    -0.00000001   -0.00000004   -0.00000006
     atom   35 type  2   force =    -0.00000012   -0.00000004    0.00000000
     atom   36 type  2   force =     0.00000012   -0.00000006   -0.00000000
     atom   37 type  2   force =     0.00000003   -0.00000007    0.00000002
     atom   38 type  2   force =    -0.00000012   -0.00000006    0.00000008
     atom   39 type  2   force =     0.00000014    0.00000003    0.00000001
     atom   40 type  2   force =    -0.00000000    0.00000003    0.00000008
     atom   41 type  2   force =    -0.00000011    0.00000001   -0.00000001
     atom   42 type  2   force =    -0.00000000   -0.00000003    0.00000004
     atom   43 type  2   force =     0.00000003   -0.00000004    0.00000000
     atom   44 type  2   force =     0.00000014    0.00000006    0.00000004
     atom   45 type  2   force =    -0.00000003    0.00000007   -0.00000002
     atom   46 type  2   force =     0.00000001    0.00000002   -0.00000004
     atom   47 type  2   force =    -0.00000012    0.00000006   -0.00000011
     atom   48 type  2   force =    -0.00000003    0.00000002   -0.00000001
     atom   49 type  3   force =    -0.00000001   -0.00000011   -0.00000003
     atom   50 type  3   force =     0.00000016   -0.00000005    0.00000002
     atom   51 type  3   force =    -0.00000000    0.00000000    0.00000003
     atom   52 type  3   force =    -0.00000014    0.00000001   -0.00000000
     atom   53 type  3   force =     0.00000016   -0.00000010    0.00000001
     atom   54 type  3   force =     0.00000012   -0.00000001   -0.00000006
     atom   55 type  3   force =    -0.00000012   -0.00000003   -0.00000004
     atom   56 type  3   force =    -0.00000005   -0.00000002    0.00000000
     atom   57 type  3   force =     0.00000001    0.00000001   -0.00000006
     atom   58 type  3   force =    -0.00000013    0.00000003    0.00000003
     atom   59 type  3   force =    -0.00000004   -0.00000001    0.00000005
     atom   60 type  3   force =     0.00000004    0.00000009    0.00000003
     atom   61 type  3   force =    -0.00000015    0.00000006    0.00000011
     atom   62 type  3   force =     0.00000002    0.00000005   -0.00000003
     atom   63 type  3   force =     0.00000001   -0.00000002   -0.00000002
     atom   64 type  3   force =     0.00000014    0.00000008   -0.00000006
     The Hubbard contrib.    to forces
     atom    1 type  1   force =     0.00000000    0.00000000    0.00000000
     atom    2 type  1   force =     0.00000000    0.00000000    0.00000000
     atom    3 type  1   force =     0.00000000    0.00000000    0.00000000
     atom    4 type  1   force =     0.00000000    0.00000000    0.00000000
     atom    5 type  1   force =     0.00000000    0.00000000    0.00000000
     atom    6 type  1   force =     0.00000000    0.00000000    0.00000000
     atom    7 type  1   force =     0.00000000    0.00000000    0.00000000
     atom    8 type  1   force =     0.00000000    0.00000000    0.00000000
     atom    9 type  1   force =     0.00000000    0.00000000    0.00000000
     atom   10 type  1   force =     0.00000000    0.00000000    0.00000000
     atom   11 type  1   force =     0.00000000    0.00000000    0.00000000
     atom   12 type  1   force =     0.00000000    0.00000000    0.00000000
     atom   13 type  1   force =     0.00000000    0.00000000    0.00000000
     atom   14 type  1   force =     0.00000000    0.00000000    0.00000000
     atom   15 type  1   force =     0.00000000    0.00000000    0.00000000
     atom   16 type  1   force =     0.00000000    0.00000000    0.00000000
     atom   17 type  1   force =     0.00000000    0.00000000    0.00000000
     atom   18 type  1   force =     0.00000000    0.00000000    0.00000000
     atom   19 type  1   force =     0.00000000    0.00000000    0.00000000
     atom   20 type  1   force =     0.00000000    0.00000000    0.00000000
     atom   21 type  1   force =     0.00000000    0.00000000    0.00000000
     atom   22 type  1   force =     0.00000000    0.00000000    0.00000000
     atom   23 type  1   force =     0.00000000    0.00000000    0.00000000
     atom   24 type  1   force =     0.00000000    0.00000000    0.00000000
     atom   25 type  1   force =     0.00000000    0.00000000    0.00000000
     atom   26 type  1   force =     0.00000000    0.00000000    0.00000000
     atom   27 type  1   force =     0.00000000    0.00000000    0.00000000
     atom   28 type  1   force =     0.00000000    0.00000000    0.00000000
     atom   29 type  1   force =     0.00000000    0.00000000    0.00000000
     atom   30 type  1   force =     0.00000000    0.00000000    0.00000000
     atom   31 type  1   force =     0.00000000    0.00000000    0.00000000
     atom   32 type  1   force =     0.00000000    0.00000000    0.00000000
     atom   33 type  2   force =     0.00000000    0.00000000    0.00000000
     atom   34 type  2   force =     0.00000007    0.00000000   -0.00000007
     atom   35 type  2   force =     0.00000000   -0.00000000   -0.00000000
     atom   36 type  2   force =     0.00000000    0.00000007   -0.00000007
     atom   37 type  2   force =    -0.00000005   -0.00000005    0.00000000
     atom   38 type  2   force =     0.00000000   -0.00000005   -0.00000005
     atom   39 type  2   force =     0.00000000   -0.00000000    0.00000000
     atom   40 type  2   force =    -0.00000005    0.00000000   -0.00000005
     atom   41 type  2   force =     0.00000000   -0.00000000    0.00000000
     atom   42 type  2   force =    -0.00000007    0.00000000    0.00000007
     atom   43 type  2   force =    -0.00000007    0.00000007    0.00000000
     atom   44 type  2   force =    -0.00000000   -0.00000007    0.00000007
     atom   45 type  2   force =     0.00000007   -0.00000007    0.00000000
     atom   46 type  2   force =     0.00000005   -0.00000000    0.00000005
     atom   47 type  2   force =    -0.00000000    0.00000005    0.00000005
     atom   48 type  2   force =     0.00000005    0.00000005   -0.00000000
     atom   49 type  3   force =     0.00000004    0.00000004   -0.00000001
     atom   50 type  3   force =    -0.00000000    0.00000000    0.00000000
     atom   51 type  3   force =     0.00000004   -0.00000001    0.00000004
     atom   52 type  3   force =     0.00000000    0.00000000    0.00000000
     atom   53 type  3   force =    -0.00000001    0.00000004    0.00000004
     atom   54 type  3   force =     0.00000000    0.00000000    0.00000000
     atom   55 type  3   force =    -0.00000000   -0.00000010    0.00000010
     atom   56 type  3   force =     0.00000010   -0.00000010    0.00000000
     atom   57 type  3   force =    -0.00000010    0.00000000    0.00000010
     atom   58 type  3   force =     0.00000000    0.00000000    0.00000000
     atom   59 type  3   force =     0.00000010    0.00000000   -0.00000010
     atom   60 type  3   force =    -0.00000010    0.00000010    0.00000000
     atom   61 type  3   force =     0.00000000    0.00000010   -0.00000010
     atom   62 type  3   force =    -0.00000004   -0.00000004    0.00000001
     atom   63 type  3   force =    -0.00000004    0.00000001   -0.00000004
     atom   64 type  3   force =     0.00000001   -0.00000004   -0.00000004
     The SCF correction term to forces
     atom    1 type  1   force =    -0.00000414   -0.00000504   -0.00000608
     atom    2 type  1   force =    -0.00000487   -0.00000398   -0.00000314
     atom    3 type  1   force =    -0.00000503   -0.00000305   -0.00000394
     atom    4 type  1   force =    -0.00000289   -0.00000337   -0.00000624
     atom    5 type  1   force =    -0.00000682   -0.00000340   -0.00000425
     atom    6 type  1   force =    -0.00000581   -0.00000352   -0.00000347
     atom    7 type  1   force =    -0.00000849   -0.00000358   -0.00000373
     atom    8 type  1   force =    -0.00000363   -0.00000653   -0.00000539
     atom    9 type  1   force =    -0.00000461   -0.00000606   -0.00000865
     atom   10 type  1   force =    -0.00000262   -0.00000280   -0.00000351
     atom   11 type  1   force =    -0.00000272   -0.00000649   -0.00000875
     atom   12 type  1   force =    -0.00000348   -0.00000350   -0.00000463
     atom   13 type  1   force =    -0.00000383   -0.00000653   -0.00000295
     atom   14 type  1   force =    -0.00000283   -0.00000955   -0.00000652
     atom   15 type  1   force =    -0.00000462   -0.00000739   -0.00000626
     atom   16 type  1   force =    -0.00000675   -0.00000391   -0.00000332
     atom   17 type  1   force =     0.00000283    0.00000373    0.00000415
     atom   18 type  1   force =     0.00000371    0.00000566    0.00000319
     atom   19 type  1   force =     0.00000692    0.00000403    0.00000413
     atom   20 type  1   force =     0.00000418    0.00000317    0.00000532
     atom   21 type  1   force =     0.00000666    0.00000590    0.00000411
     atom   22 type  1   force =     0.00000345    0.00000967    0.00000821
     atom   23 type  1   force =     0.00000370    0.00000402    0.00000595
     atom   24 type  1   force =     0.00000805    0.00000297    0.00000338
     atom   25 type  1   force =     0.00000330    0.00000749    0.00000866
     atom   26 type  1   force =     0.00000386    0.00000576    0.00000553
     atom   27 type  1   force =     0.00000744    0.00000403    0.00000219
     atom   28 type  1   force =     0.00000577    0.00000286    0.00000609
     atom   29 type  1   force =     0.00000540    0.00000650    0.00000635
     atom   30 type  1   force =     0.00000294    0.00000423    0.00000333
     atom   31 type  1   force =     0.00000278    0.00000327    0.00000353
     atom   32 type  1   force =     0.00000300    0.00000599    0.00000676
     atom   33 type  2   force =    -0.00000155   -0.00000499   -0.00000435
     atom   34 type  2   force =    -0.00000011    0.00000547    0.00000927
     atom   35 type  2   force =     0.00000737    0.00000826    0.00000728
     atom   36 type  2   force =    -0.00000281   -0.00000276   -0.00000484
     atom   37 type  2   force =    -0.00000180    0.00000252    0.00000533
     atom   38 type  2   force =     0.00001268    0.00001161   -0.00000301
     atom   39 type  2   force =    -0.00001798   -0.00000586   -0.00000576
     atom   40 type  2   force =     0.00000073   -0.00000705   -0.00000387
     atom   41 type  2   force =     0.00001275    0.00000204    0.00000244
     atom   42 type  2   force =     0.00000347    0.00000035   -0.00000479
     atom   43 type  2   force =    -0.00000556    0.00000545    0.00000561
     atom   44 type  2   force =    -0.00002018   -0.00000843   -0.00000617
     atom   45 type  2   force =     0.00000150    0.00000436   -0.00000666
     atom   46 type  2   force =    -0.00000372    0.00000104   -0.00000219
     atom   47 type  2   force =     0.00000833   -0.00000123    0.00001332
     atom   48 type  2   force =     0.00000500   -0.00001142   -0.00000427
     atom   49 type  3   force =     0.00000200   -0.00000113   -0.00000319
     atom   50 type  3   force =    -0.00000944    0.00000736    0.00000242
     atom   51 type  3   force =    -0.00000303    0.00000277   -0.00000585
     atom   52 type  3   force =     0.00000541   -0.00000499   -0.00000844
     atom   53 type  3   force =    -0.00001402    0.00001006    0.00000490
     atom   54 type  3   force =    -0.00001192    0.00000500    0.00000942
     atom   55 type  3   force =     0.00000378   -0.00000070   -0.00000059
     atom   56 type  3   force =     0.00000357    0.00001193   -0.00000415
     atom   57 type  3   force =     0.00000310   -0.00000228    0.00000032
     atom   58 type  3   force =     0.00001461   -0.00000600   -0.00000257
     atom   59 type  3   force =     0.00000336    0.00000156    0.00000094
     atom   60 type  3   force =    -0.00000185   -0.00000514    0.00000434
     atom   61 type  3   force =     0.00001664   -0.00001054   -0.00001040
     atom   62 type  3   force =    -0.00000330   -0.00000704    0.00000597
     atom   63 type  3   force =    -0.00000212   -0.00000052    0.00000316
     atom   64 type  3   force =    -0.00000752    0.00000182    0.00000546

     Total force =     0.000006     Total SCF correction =     0.000085
     SCF correction compared to forces is large: reduce conv_thr to get better values

     Writing all to output data dir ./out/NiO-cubic.save/

     init_run     :      7.10s CPU      7.58s WALL (       1 calls)
     electrons    :    424.68s CPU    436.56s WALL (       1 calls)
     forces       :     17.16s CPU     17.37s WALL (       1 calls)

     Called by init_run:
     wfcinit      :      5.52s CPU      5.90s WALL (       1 calls)
     wfcinit:atom :      0.03s CPU      0.06s WALL (       2 calls)
     wfcinit:wfcr :      4.56s CPU      4.64s WALL (       2 calls)
     potinit      :      0.43s CPU      0.48s WALL (       1 calls)
     hinit0       :      0.83s CPU      0.85s WALL (       1 calls)

     Called by electrons:
     c_bands      :    383.67s CPU    394.77s WALL (      28 calls)
     sum_band     :     33.57s CPU     33.69s WALL (      28 calls)
     v_of_rho     :      5.49s CPU      5.55s WALL (      29 calls)
     v_h          :      0.24s CPU      0.24s WALL (      29 calls)
     v_xc         :      5.42s CPU      5.47s WALL (      30 calls)
     mix_rho      :      1.65s CPU      1.68s WALL (      28 calls)

     Called by c_bands:
     init_us_2    :      5.49s CPU      5.55s WALL (     120 calls)
     init_us_2:cp :      5.49s CPU      5.55s WALL (     120 calls)
     regterg      :    372.13s CPU    382.87s WALL (      56 calls)

     Called by sum_band:
     sum_band:wei :      0.00s CPU      0.00s WALL (      28 calls)
     sum_band:loo :     28.63s CPU     28.73s WALL (      28 calls)
     sum_band:buf :      1.40s CPU      1.40s WALL (      56 calls)
     sum_band:ini :      2.58s CPU      2.59s WALL (      56 calls)

     Called by *egterg:
     rdiaghg      :     40.77s CPU     40.79s WALL (     220 calls)
     regterg:over :     31.05s CPU     31.10s WALL (     164 calls)
     regterg:upda :     18.69s CPU     18.72s WALL (     164 calls)
     regterg:last :     35.11s CPU     35.15s WALL (     106 calls)
     h_psi        :    231.83s CPU    232.47s WALL (     222 calls)
     g_psi        :      0.89s CPU      0.89s WALL (     164 calls)

     Called by h_psi:
     h_psi:calbec :     32.98s CPU     33.03s WALL (     222 calls)
     vloc_psi     :     95.83s CPU     96.18s WALL (     222 calls)
     add_vuspsi   :     30.32s CPU     30.36s WALL (     222 calls)
     vhpsi        :     69.57s CPU     69.75s WALL (     222 calls)

     General routines
     calbec       :     54.70s CPU     54.81s WALL (    2050 calls)
     fft          :      2.60s CPU      2.63s WALL (     445 calls)
     ffts         :      0.28s CPU      0.28s WALL (      56 calls)
     fftw         :    107.46s CPU    107.85s WALL (   69736 calls)
     davcio       :      0.00s CPU      0.03s WALL (       2 calls)

     Parallel routines

     Hubbard U routines
     new_ns       :      4.23s CPU      4.25s WALL (      28 calls)
     vhpsi        :     69.57s CPU     69.75s WALL (     222 calls)
     force_hub    :     13.96s CPU     14.06s WALL (       1 calls)

     PWSCF        :   7m30.28s CPU   7m44.05s WALL


   This run was terminated on:  16: 7:33  17Oct2022            

=------------------------------------------------------------------------------=
   JOB DONE.
=------------------------------------------------------------------------------=
