<UPF version="2.0.1">
  <PP_INFO>

 This pseudopotential file has been produced using the code
 ONCVPSP  (Optimized Norm-Conservinng Vanderbilt PSeudopotential)
 scalar-relativistic version 3.2.2 08/07/2015 by D. R. Hamann
 The code is available through a link at URL www.mat-simresearch.com.
 Documentation with the package provides a full discription of the
 input data below.


 While it is not required under the terms of the GNU GPL, it is
 suggested that you cite D. R. Hamann, Phys. Rev. B 88, 085117 (2013)
 in any publication using these pseudopotentials.

    <PP_INPUTFILE>
# ATOM AND REFERENCE CONFIGURATION
# atsym  z   nc   nv     iexc    psfile
  B  5.00    1    2       4      upf
#
#   n    l    f        energy (Ha)
    1    0    2.00
    2    0    2.00
    2    1    1.00
#
# PSEUDOPOTENTIAL AND OPTIMIZATION
# lmax
    1
#
#   l,   rc,     ep,   ncon, nbas, qcut
    0    1.77   -0.35    5    8    8.06
    1    1.90   -0.13    5    8    7.09
#
# LOCAL POTENTIAL
# lloc, lpopt,  rc(5),   dvloc0
    4    5      1.38       0.00
#
# VANDERBILT-KLEINMAN-BYLANDER PROJECTORs
# l, nproj, debl
    0    2    0.7689
    1    2    1.7737
#
# MODEL CORE CHARGE
# icmod, fcfact
    0    0.00
#
# LOG DERIVATIVE ANALYSIS
# epsh1, epsh2, depsh
   -5.00    3.00    0.02
#
# OUTPUT GRID
# rlmax, drl
    6.00    0.01
#
# TEST CONFIGURATIONS
# ncnf
    0
# nvcnf
#   n    l    f
    </PP_INPUTFILE>
  </PP_INFO>
  <!--                               -->
  <!-- END OF HUMAN READABLE SECTION -->
  <!--                               -->
    <PP_HEADER
       generated="Generated using ONCVPSP code by D. R. Hamann"
       author="anonymous"
       date="221025"
       comment="Modified by Emil Briggs to output UPF format on log grid for RMG."
       element="B "
       pseudo_type="NC"
       relativistic="scalar"
       is_ultrasoft="F"
       is_paw="F"
       is_coulomb="F"
       has_so="F"
       has_wfc="F"
       has_gipaw="F"
       core_correction="F"
       functional="PBE"
       z_valence="    3.00"
       total_psenergy="  -5.17786162070E+00"
       rho_cutoff="   1.53300000000E+01"
       l_max="1"
       l_local="-1"
       mesh_size="  1091"
       number_of_wfc="2"
       number_of_proj="4"/>
 <PP_MESH>
   <PP_R type="real"  size="1091" columns="4">
  0.100000000000E-03  0.101200000000E-03  0.102414400000E-03  0.103643372800E-03
  0.104887093274E-03  0.106145738393E-03  0.107419487254E-03  0.108708521101E-03
  0.110013023354E-03  0.111333179634E-03  0.112669177790E-03  0.114021207923E-03
  0.115389462418E-03  0.116774135967E-03  0.118175425599E-03  0.119593530706E-03
  0.121028653075E-03  0.122480996911E-03  0.123950768874E-03  0.125438178101E-03
  0.126943436238E-03  0.128466757473E-03  0.130008358563E-03  0.131568458865E-03
  0.133147280372E-03  0.134745047736E-03  0.136361988309E-03  0.137998332169E-03
  0.139654312155E-03  0.141330163901E-03  0.143026125867E-03  0.144742439378E-03
  0.146479348650E-03  0.148237100834E-03  0.150015946044E-03  0.151816137397E-03
  0.153637931045E-03  0.155481586218E-03  0.157347365253E-03  0.159235533636E-03
  0.161146360039E-03  0.163080116360E-03  0.165037077756E-03  0.167017522689E-03
  0.169021732961E-03  0.171049993757E-03  0.173102593682E-03  0.175179824806E-03
  0.177281982704E-03  0.179409366496E-03  0.181562278894E-03  0.183741026241E-03
  0.185945918556E-03  0.188177269579E-03  0.190435396814E-03  0.192720621575E-03
  0.195033269034E-03  0.197373668263E-03  0.199742152282E-03  0.202139058109E-03
  0.204564726806E-03  0.207019503528E-03  0.209503737571E-03  0.212017782421E-03
  0.214561995810E-03  0.217136739760E-03  0.219742380637E-03  0.222379289205E-03
  0.225047840675E-03  0.227748414763E-03  0.230481395741E-03  0.233247172490E-03
  0.236046138559E-03  0.238878692222E-03  0.241745236529E-03  0.244646179367E-03
  0.247581933520E-03  0.250552916722E-03  0.253559551722E-03  0.256602266343E-03
  0.259681493539E-03  0.262797671462E-03  0.265951243519E-03  0.269142658441E-03
  0.272372370343E-03  0.275640838787E-03  0.278948528852E-03  0.282295911199E-03
  0.285683462133E-03  0.289111663678E-03  0.292581003643E-03  0.296091975686E-03
  0.299645079395E-03  0.303240820347E-03  0.306879710191E-03  0.310562266714E-03
  0.314289013914E-03  0.318060482081E-03  0.321877207866E-03  0.325739734361E-03
  0.329648611173E-03  0.333604394507E-03  0.337607647241E-03  0.341658939008E-03
  0.345758846276E-03  0.349907952431E-03  0.354106847861E-03  0.358356130035E-03
  0.362656403595E-03  0.367008280439E-03  0.371412379804E-03  0.375869328361E-03
  0.380379760302E-03  0.384944317425E-03  0.389563649235E-03  0.394238413025E-03
  0.398969273982E-03  0.403756905269E-03  0.408601988133E-03  0.413505211990E-03
  0.418467274534E-03  0.423488881829E-03  0.428570748410E-03  0.433713597391E-03
  0.438918160560E-03  0.444185178487E-03  0.449515400629E-03  0.454909585436E-03
  0.460368500461E-03  0.465892922467E-03  0.471483637537E-03  0.477141441187E-03
  0.482867138481E-03  0.488661544143E-03  0.494525482673E-03  0.500459788465E-03
  0.506465305926E-03  0.512542889598E-03  0.518693404273E-03  0.524917725124E-03
  0.531216737825E-03  0.537591338679E-03  0.544042434744E-03  0.550570943960E-03
  0.557177795288E-03  0.563863928831E-03  0.570630295977E-03  0.577477859529E-03
  0.584407593843E-03  0.591420484970E-03  0.598517530789E-03  0.605699741159E-03
  0.612968138053E-03  0.620323755709E-03  0.627767640778E-03  0.635300852467E-03
  0.642924462697E-03  0.650639556249E-03  0.658447230924E-03  0.666348597695E-03
  0.674344780867E-03  0.682436918238E-03  0.690626161257E-03  0.698913675192E-03
  0.707300639294E-03  0.715788246966E-03  0.724377705929E-03  0.733070238400E-03
  0.741867081261E-03  0.750769486236E-03  0.759778720071E-03  0.768896064712E-03
  0.778122817489E-03  0.787460291298E-03  0.796909814794E-03  0.806472732572E-03
  0.816150405362E-03  0.825944210227E-03  0.835855540749E-03  0.845885807238E-03
  0.856036436925E-03  0.866308874168E-03  0.876704580658E-03  0.887225035626E-03
  0.897871736054E-03  0.908646196887E-03  0.919549951249E-03  0.930584550664E-03
  0.941751565272E-03  0.953052584055E-03  0.964489215064E-03  0.976063085645E-03
  0.987775842673E-03  0.999629152785E-03  0.101162470262E-02  0.102376419905E-02
  0.103604936944E-02  0.104848196187E-02  0.106106374541E-02  0.107379651036E-02
  0.108668206848E-02  0.109972225330E-02  0.111291892034E-02  0.112627394739E-02
  0.113978923476E-02  0.115346670557E-02  0.116730830604E-02  0.118131600571E-02
  0.119549179778E-02  0.120983769936E-02  0.122435575175E-02  0.123904802077E-02
  0.125391659702E-02  0.126896359618E-02  0.128419115934E-02  0.129960145325E-02
  0.131519667069E-02  0.133097903074E-02  0.134695077910E-02  0.136311418845E-02
  0.137947155872E-02  0.139602521742E-02  0.141277752003E-02  0.142973085027E-02
  0.144688762047E-02  0.146425027192E-02  0.148182127518E-02  0.149960313048E-02
  0.151759836805E-02  0.153580954847E-02  0.155423926305E-02  0.157289013420E-02
  0.159176481581E-02  0.161086599360E-02  0.163019638553E-02  0.164975874215E-02
  0.166955584706E-02  0.168959051722E-02  0.170986560343E-02  0.173038399067E-02
  0.175114859856E-02  0.177216238174E-02  0.179342833032E-02  0.181494947029E-02
  0.183672886393E-02  0.185876961030E-02  0.188107484562E-02  0.190364774377E-02
  0.192649151669E-02  0.194960941490E-02  0.197300472787E-02  0.199668078461E-02
  0.202064095402E-02  0.204488864547E-02  0.206942730922E-02  0.209426043693E-02
  0.211939156217E-02  0.214482426092E-02  0.217056215205E-02  0.219660889787E-02
  0.222296820465E-02  0.224964382310E-02  0.227663954898E-02  0.230395922357E-02
  0.233160673425E-02  0.235958601506E-02  0.238790104724E-02  0.241655585981E-02
  0.244555453013E-02  0.247490118449E-02  0.250459999870E-02  0.253465519869E-02
  0.256507106107E-02  0.259585191380E-02  0.262700213677E-02  0.265852616241E-02
  0.269042847636E-02  0.272271361808E-02  0.275538618149E-02  0.278845081567E-02
  0.282191222546E-02  0.285577517216E-02  0.289004447423E-02  0.292472500792E-02
  0.295982170802E-02  0.299533956851E-02  0.303128364334E-02  0.306765904706E-02
  0.310447095562E-02  0.314172460709E-02  0.317942530237E-02  0.321757840600E-02
  0.325618934687E-02  0.329526361904E-02  0.333480678246E-02  0.337482446385E-02
  0.341532235742E-02  0.345630622571E-02  0.349778190042E-02  0.353975528322E-02
  0.358223234662E-02  0.362521913478E-02  0.366872176440E-02  0.371274642557E-02
  0.375729938268E-02  0.380238697527E-02  0.384801561897E-02  0.389419180640E-02
  0.394092210808E-02  0.398821317337E-02  0.403607173145E-02  0.408450459223E-02
  0.413351864734E-02  0.418312087111E-02  0.423331832156E-02  0.428411814142E-02
  0.433552755912E-02  0.438755388983E-02  0.444020453650E-02  0.449348699094E-02
  0.454740883483E-02  0.460197774085E-02  0.465720147374E-02  0.471308789143E-02
  0.476964494612E-02  0.482688068548E-02  0.488480325370E-02  0.494342089275E-02
  0.500274194346E-02  0.506277484678E-02  0.512352814494E-02  0.518501048268E-02
  0.524723060847E-02  0.531019737577E-02  0.537391974428E-02  0.543840678122E-02
  0.550366766259E-02  0.556971167454E-02  0.563654821464E-02  0.570418679321E-02
  0.577263703473E-02  0.584190867915E-02  0.591201158330E-02  0.598295572230E-02
  0.605475119096E-02  0.612740820526E-02  0.620093710372E-02  0.627534834896E-02
  0.635065252915E-02  0.642686035950E-02  0.650398268381E-02  0.658203047602E-02
  0.666101484173E-02  0.674094701983E-02  0.682183838407E-02  0.690370044468E-02
  0.698654485002E-02  0.707038338822E-02  0.715522798887E-02  0.724109072474E-02
  0.732798381344E-02  0.741591961920E-02  0.750491065463E-02  0.759496958249E-02
  0.768610921748E-02  0.777834252809E-02  0.787168263842E-02  0.796614283008E-02
  0.806173654404E-02  0.815847738257E-02  0.825637911116E-02  0.835545566050E-02
  0.845572112842E-02  0.855718978196E-02  0.865987605935E-02  0.876379457206E-02
  0.886896010692E-02  0.897538762821E-02  0.908309227975E-02  0.919208938710E-02
  0.930239445975E-02  0.941402319327E-02  0.952699147158E-02  0.964131536924E-02
  0.975701115367E-02  0.987409528752E-02  0.999258443097E-02  0.101124954441E-01
  0.102338453895E-01  0.103566515341E-01  0.104809313526E-01  0.106067025288E-01
  0.107339829591E-01  0.108627907546E-01  0.109931442437E-01  0.111250619746E-01
  0.112585627183E-01  0.113936654709E-01  0.115303894566E-01  0.116687541301E-01
  0.118087791796E-01  0.119504845298E-01  0.120938903441E-01  0.122390170283E-01
  0.123858852326E-01  0.125345158554E-01  0.126849300457E-01  0.128371492062E-01
  0.129911949967E-01  0.131470893366E-01  0.133048544087E-01  0.134645126616E-01
  0.136260868135E-01  0.137895998553E-01  0.139550750536E-01  0.141225359542E-01
  0.142920063856E-01  0.144635104623E-01  0.146370725878E-01  0.148127174589E-01
  0.149904700684E-01  0.151703557092E-01  0.153523999777E-01  0.155366287774E-01
  0.157230683228E-01  0.159117451427E-01  0.161026860844E-01  0.162959183174E-01
  0.164914693372E-01  0.166893669692E-01  0.168896393729E-01  0.170923150453E-01
  0.172974228259E-01  0.175049918998E-01  0.177150518026E-01  0.179276324242E-01
  0.181427640133E-01  0.183604771815E-01  0.185808029076E-01  0.188037725425E-01
  0.190294178130E-01  0.192577708268E-01  0.194888640767E-01  0.197227304456E-01
  0.199594032110E-01  0.201989160495E-01  0.204413030421E-01  0.206865986786E-01
  0.209348378628E-01  0.211860559171E-01  0.214402885881E-01  0.216975720512E-01
  0.219579429158E-01  0.222214382308E-01  0.224880954896E-01  0.227579526354E-01
  0.230310480671E-01  0.233074206439E-01  0.235871096916E-01  0.238701550079E-01
  0.241565968680E-01  0.244464760304E-01  0.247398337428E-01  0.250367117477E-01
  0.253371522886E-01  0.256411981161E-01  0.259488924935E-01  0.262602792034E-01
  0.265754025539E-01  0.268943073845E-01  0.272170390731E-01  0.275436435420E-01
  0.278741672645E-01  0.282086572717E-01  0.285471611589E-01  0.288897270929E-01
  0.292364038180E-01  0.295872406638E-01  0.299422875517E-01  0.303015950024E-01
  0.306652141424E-01  0.310331967121E-01  0.314055950727E-01  0.317824622135E-01
  0.321638517601E-01  0.325498179812E-01  0.329404157970E-01  0.333357007865E-01
  0.337357291960E-01  0.341405579463E-01  0.345502446417E-01  0.349648475774E-01
  0.353844257483E-01  0.358090388573E-01  0.362387473236E-01  0.366736122915E-01
  0.371136956390E-01  0.375590599866E-01  0.380097687065E-01  0.384658859310E-01
  0.389274765621E-01  0.393946062809E-01  0.398673415562E-01  0.403457496549E-01
  0.408298986508E-01  0.413198574346E-01  0.418156957238E-01  0.423174840725E-01
  0.428252938814E-01  0.433391974079E-01  0.438592677768E-01  0.443855789901E-01
  0.449182059380E-01  0.454572244093E-01  0.460027111022E-01  0.465547436354E-01
  0.471134005591E-01  0.476787613658E-01  0.482509065021E-01  0.488299173802E-01
  0.494158763887E-01  0.500088669054E-01  0.506089733083E-01  0.512162809880E-01
  0.518308763598E-01  0.524528468761E-01  0.530822810387E-01  0.537192684111E-01
  0.543638996320E-01  0.550162664276E-01  0.556764616248E-01  0.563445791643E-01
  0.570207141142E-01  0.577049626836E-01  0.583974222358E-01  0.590981913026E-01
  0.598073695983E-01  0.605250580334E-01  0.612513587298E-01  0.619863750346E-01
  0.627302115350E-01  0.634829740734E-01  0.642447697623E-01  0.650157069995E-01
  0.657958954835E-01  0.665854462293E-01  0.673844715840E-01  0.681930852430E-01
  0.690114022659E-01  0.698395390931E-01  0.706776135623E-01  0.715257449250E-01
  0.723840538641E-01  0.732526625105E-01  0.741316944606E-01  0.750212747941E-01
  0.759215300917E-01  0.768325884528E-01  0.777545795142E-01  0.786876344684E-01
  0.796318860820E-01  0.805874687150E-01  0.815545183395E-01  0.825331725596E-01
  0.835235706303E-01  0.845258534779E-01  0.855401637196E-01  0.865666456843E-01
  0.876054454325E-01  0.886567107777E-01  0.897205913070E-01  0.907972384027E-01
  0.918868052635E-01  0.929894469267E-01  0.941053202898E-01  0.952345841333E-01
  0.963773991429E-01  0.975339279326E-01  0.987043350678E-01  0.998887870886E-01
  0.101087452534E+00  0.102300501964E+00  0.103528107988E+00  0.104770445283E+00
  0.106027690627E+00  0.107300022914E+00  0.108587623189E+00  0.109890674668E+00
  0.111209362764E+00  0.112543875117E+00  0.113894401618E+00  0.115261134438E+00
  0.116644268051E+00  0.118043999268E+00  0.119460527259E+00  0.120894053586E+00
  0.122344782229E+00  0.123812919616E+00  0.125298674651E+00  0.126802258747E+00
  0.128323885852E+00  0.129863772482E+00  0.131422137752E+00  0.132999203405E+00
  0.134595193846E+00  0.136210336172E+00  0.137844860206E+00  0.139498998528E+00
  0.141172986511E+00  0.142867062349E+00  0.144581467097E+00  0.146316444702E+00
  0.148072242039E+00  0.149849108943E+00  0.151647298250E+00  0.153467065829E+00
  0.155308670619E+00  0.157172374667E+00  0.159058443163E+00  0.160967144481E+00
  0.162898750214E+00  0.164853535217E+00  0.166831777640E+00  0.168833758971E+00
  0.170859764079E+00  0.172910081248E+00  0.174985002223E+00  0.177084822250E+00
  0.179209840117E+00  0.181360358198E+00  0.183536682496E+00  0.185739122686E+00
  0.187967992159E+00  0.190223608064E+00  0.192506291361E+00  0.194816366858E+00
  0.197154163260E+00  0.199520013219E+00  0.201914253378E+00  0.204337224418E+00
  0.206789271111E+00  0.209270742364E+00  0.211781991273E+00  0.214323375168E+00
  0.216895255670E+00  0.219497998738E+00  0.222131974723E+00  0.224797558420E+00
  0.227495129121E+00  0.230225070670E+00  0.232987771518E+00  0.235783624776E+00
  0.238613028274E+00  0.241476384613E+00  0.244374101228E+00  0.247306590443E+00
  0.250274269528E+00  0.253277560763E+00  0.256316891492E+00  0.259392694190E+00
  0.262505406520E+00  0.265655471398E+00  0.268843337055E+00  0.272069457100E+00
  0.275334290585E+00  0.278638302072E+00  0.281981961697E+00  0.285365745237E+00
  0.288790134180E+00  0.292255615790E+00  0.295762683180E+00  0.299311835378E+00
  0.302903577402E+00  0.306538420331E+00  0.310216881375E+00  0.313939483952E+00
  0.317706757759E+00  0.321519238852E+00  0.325377469718E+00  0.329281999355E+00
  0.333233383347E+00  0.337232183948E+00  0.341278970155E+00  0.345374317797E+00
  0.349518809610E+00  0.353713035326E+00  0.357957591750E+00  0.362253082851E+00
  0.366600119845E+00  0.370999321283E+00  0.375451313138E+00  0.379956728896E+00
  0.384516209643E+00  0.389130404158E+00  0.393799969008E+00  0.398525568636E+00
  0.403307875460E+00  0.408147569966E+00  0.413045340805E+00  0.418001884895E+00
  0.423017907514E+00  0.428094122404E+00  0.433231251873E+00  0.438430026895E+00
  0.443691187218E+00  0.449015481464E+00  0.454403667242E+00  0.459856511249E+00
  0.465374789384E+00  0.470959286856E+00  0.476610798299E+00  0.482330127878E+00
  0.488118089413E+00  0.493975506486E+00  0.499903212564E+00  0.505902051114E+00
  0.511972875728E+00  0.518116550237E+00  0.524333948839E+00  0.530625956225E+00
  0.536993467700E+00  0.543437389313E+00  0.549958637984E+00  0.556558141640E+00
  0.563236839340E+00  0.569995681412E+00  0.576835629589E+00  0.583757657144E+00
  0.590762749030E+00  0.597851902018E+00  0.605026124842E+00  0.612286438340E+00
  0.619633875600E+00  0.627069482108E+00  0.634594315893E+00  0.642209447684E+00
  0.649915961056E+00  0.657714952588E+00  0.665607532019E+00  0.673594822404E+00
  0.681677960273E+00  0.689858095796E+00  0.698136392945E+00  0.706514029661E+00
  0.714992198017E+00  0.723572104393E+00  0.732254969646E+00  0.741042029281E+00
  0.749934533633E+00  0.758933748036E+00  0.768040953013E+00  0.777257444449E+00
  0.786584533782E+00  0.796023548188E+00  0.805575830766E+00  0.815242740735E+00
  0.825025653624E+00  0.834925961467E+00  0.844945073005E+00  0.855084413881E+00
  0.865345426848E+00  0.875729571970E+00  0.886238326833E+00  0.896873186755E+00
  0.907635664997E+00  0.918527292976E+00  0.929549620492E+00  0.940704215938E+00
  0.951992666529E+00  0.963416578528E+00  0.974977577470E+00  0.986677308400E+00
  0.998517436100E+00  0.101049964533E+01  0.102262564108E+01  0.103489714877E+01
  0.104731591456E+01  0.105988370553E+01  0.107260231000E+01  0.108547353772E+01
  0.109849922017E+01  0.111168121081E+01  0.112502138534E+01  0.113852164197E+01
  0.115218390167E+01  0.116601010849E+01  0.118000222979E+01  0.119416225655E+01
  0.120849220363E+01  0.122299411007E+01  0.123767003939E+01  0.125252207986E+01
  0.126755234482E+01  0.128276297296E+01  0.129815612864E+01  0.131373400218E+01
  0.132949881021E+01  0.134545279593E+01  0.136159822948E+01  0.137793740823E+01
  0.139447265713E+01  0.141120632902E+01  0.142814080497E+01  0.144527849463E+01
  0.146262183656E+01  0.148017329860E+01  0.149793537818E+01  0.151591060272E+01
  0.153410152995E+01  0.155251074831E+01  0.157114087729E+01  0.158999456782E+01
  0.160907450263E+01  0.162838339667E+01  0.164792399743E+01  0.166769908539E+01
  0.168771147442E+01  0.170796401211E+01  0.172845958026E+01  0.174920109522E+01
  0.177019150836E+01  0.179143380646E+01  0.181293101214E+01  0.183468618429E+01
  0.185670241850E+01  0.187898284752E+01  0.190153064169E+01  0.192434900939E+01
  0.194744119750E+01  0.197081049187E+01  0.199446021778E+01  0.201839374039E+01
  0.204261446527E+01  0.206712583886E+01  0.209193134892E+01  0.211703452511E+01
  0.214243893941E+01  0.216814820669E+01  0.219416598517E+01  0.222049597699E+01
  0.224714192871E+01  0.227410763186E+01  0.230139692344E+01  0.232901368652E+01
  0.235696185076E+01  0.238524539297E+01  0.241386833768E+01  0.244283475773E+01
  0.247214877483E+01  0.250181456013E+01  0.253183633485E+01  0.256221837086E+01
  0.259296499132E+01  0.262408057121E+01  0.265556953807E+01  0.268743637252E+01
  0.271968560899E+01  0.275232183630E+01  0.278534969834E+01  0.281877389472E+01
  0.285259918145E+01  0.288683037163E+01  0.292147233609E+01  0.295653000412E+01
  0.299200836417E+01  0.302791246454E+01  0.306424741412E+01  0.310101838309E+01
  0.313823060368E+01  0.317588937093E+01  0.321400004338E+01  0.325256804390E+01
  0.329159886043E+01  0.333109804675E+01  0.337107122331E+01  0.341152407799E+01
  0.345246236693E+01  0.349389191533E+01  0.353581861831E+01  0.357824844173E+01
  0.362118742304E+01  0.366464167211E+01  0.370861737218E+01  0.375312078064E+01
  0.379815823001E+01  0.384373612877E+01  0.388986096232E+01  0.393653929386E+01
  0.398377776539E+01  0.403158309858E+01  0.407996209576E+01  0.412892164091E+01
  0.417846870060E+01  0.422861032501E+01  0.427935364891E+01  0.433070589269E+01
  0.438267436340E+01  0.443526645577E+01  0.448848965323E+01  0.454235152907E+01
  0.459685974742E+01  0.465202206439E+01  0.470784632916E+01  0.476434048511E+01
  0.482151257094E+01  0.487937072179E+01  0.493792317045E+01  0.499717824849E+01
  0.505714438748E+01  0.511783012012E+01  0.517924408157E+01  0.524139501055E+01
  0.530429175067E+01  0.536794325168E+01  0.543235857070E+01  0.549754687355E+01
  0.556351743603E+01  0.563027964526E+01  0.569784300101E+01  0.576621711702E+01
  0.583541172242E+01  0.590543666309E+01  0.597630190305E+01  0.604801752589E+01
  0.612059373620E+01  0.619404086103E+01  0.626836935136E+01  0.634358978358E+01
  0.641971286098E+01  0.649674941531E+01  0.657471040830E+01  0.665360693320E+01
  0.673345021640E+01  0.681425161899E+01  0.689602263842E+01  0.697877491008E+01
  0.706252020900E+01  0.714727045151E+01  0.723303769693E+01  0.731983414929E+01
  0.740767215908E+01  0.749656422499E+01  0.758652299569E+01  0.767756127164E+01
  0.776969200690E+01  0.786292831098E+01  0.795728345071E+01  0.805277085212E+01
  0.814940410235E+01  0.824719695158E+01  0.834616331500E+01  0.844631727478E+01
  0.854767308207E+01  0.865024515906E+01  0.875404810097E+01  0.885909667818E+01
  0.896540583832E+01  0.907299070838E+01  0.918186659688E+01  0.929204899604E+01
  0.940355358399E+01  0.951639622700E+01  0.963059298172E+01  0.974616009750E+01
  0.986311401867E+01  0.998147138690E+01  0.101012490435E+02  0.102224640321E+02
  0.103451336004E+02  0.104692752037E+02  0.105949065061E+02  0.107220453842E+02
  0.108507099288E+02  0.109809184479E+02  0.111126894693E+02  0.112460417429E+02
  0.113809942438E+02  0.115175661748E+02  0.116557769689E+02  0.117956462925E+02
  0.119371940480E+02  0.120804403766E+02  0.122254056611E+02  0.123721105290E+02
  0.125205758554E+02  0.126708227656E+02  0.128228726388E+02  0.129767471105E+02
  0.131324680758E+02  0.132900576927E+02  0.134495383851E+02  0.136109328457E+02
  0.137742640398E+02  0.139395552083E+02  0.141068298708E+02  0.142761118292E+02
  0.144474251712E+02  0.146207942733E+02  0.147962438045E+02  0.149737987302E+02
  0.151534843149E+02  0.153353261267E+02  0.155193500402E+02  0.157055822407E+02
  0.158940492276E+02  0.160847778184E+02  0.162777951522E+02  0.164731286940E+02
  0.166708062383E+02  0.168708559132E+02  0.170733061841E+02  0.172781858584E+02
  0.174855240887E+02  0.176953503777E+02  0.179076945823E+02  0.181225869172E+02
  0.183400579602E+02  0.185601386558E+02  0.187828603196E+02  0.190082546435E+02
  0.192363536992E+02  0.194671899436E+02  0.197007962229E+02  0.199372057776E+02
  0.201764522469E+02  0.204185696739E+02  0.206635925100E+02  0.209115556201E+02
  0.211624942875E+02  0.214164442190E+02  0.216734415496E+02  0.219335228482E+02
  0.221967251224E+02  0.224630858238E+02  0.227326428537E+02  0.230054345680E+02
  0.232814997828E+02  0.235608777802E+02  0.238436083135E+02  0.241297316133E+02
  0.244192883927E+02  0.247123198534E+02  0.250088676916E+02  0.253089741039E+02
  0.256126817932E+02  0.259200339747E+02  0.262310743824E+02  0.265458472750E+02
  0.268643974423E+02  0.271867702116E+02  0.275130114541E+02  0.278431675916E+02
  0.281772856027E+02  0.285154130299E+02  0.288575979863E+02  0.292038891621E+02
  0.295543358320E+02  0.299089878620E+02  0.302678957164E+02  0.306311104650E+02
  0.309986837905E+02  0.313706679960E+02  0.317471160120E+02  0.321280814041E+02
  0.325136183810E+02  0.329037818015E+02  0.332986271832E+02  0.336982107094E+02
  0.341025892379E+02  0.345118203087E+02  0.349259621524E+02  0.353450736983E+02
  0.357692145826E+02  0.361984451576E+02  0.366328264995E+02  0.370724204175E+02
  0.375172894625E+02  0.379674969361E+02  0.384231068993E+02  0.388841841821E+02
  0.393507943923E+02  0.398230039250E+02  0.403008799721E+02  0.407844905318E+02
  0.412739044181E+02  0.417691912712E+02  0.422704215664E+02  0.427776666252E+02
  0.432909986247E+02  0.438104906082E+02  0.443362164955E+02
   </PP_R>
   <PP_RAB type="real"  size="1091" columns="4">
  0.119285708653E-05  0.120717137157E-05  0.122165742802E-05  0.123631731716E-05
  0.125115312497E-05  0.126616696247E-05  0.128136096602E-05  0.129673729761E-05
  0.131229814518E-05  0.132804572292E-05  0.134398227160E-05  0.136011005886E-05
  0.137643137956E-05  0.139294855612E-05  0.140966393879E-05  0.142657990606E-05
  0.144369886493E-05  0.146102325131E-05  0.147855553032E-05  0.149629819669E-05
  0.151425377505E-05  0.153242482035E-05  0.155081391819E-05  0.156942368521E-05
  0.158825676943E-05  0.160731585067E-05  0.162660364087E-05  0.164612288456E-05
  0.166587635918E-05  0.168586687549E-05  0.170609727800E-05  0.172657044533E-05
  0.174728929068E-05  0.176825676216E-05  0.178947584331E-05  0.181094955343E-05
  0.183268094807E-05  0.185467311945E-05  0.187692919688E-05  0.189945234724E-05
  0.192224577541E-05  0.194531272471E-05  0.196865647741E-05  0.199228035514E-05
  0.201618771940E-05  0.204038197203E-05  0.206486655570E-05  0.208964495437E-05
  0.211472069382E-05  0.214009734215E-05  0.216577851025E-05  0.219176785237E-05
  0.221806906660E-05  0.224468589540E-05  0.227162212615E-05  0.229888159166E-05
  0.232646817076E-05  0.235438578881E-05  0.238263841828E-05  0.241123007930E-05
  0.244016484025E-05  0.246944681833E-05  0.249908018015E-05  0.252906914231E-05
  0.255941797202E-05  0.259013098768E-05  0.262121255954E-05  0.265266711025E-05
  0.268449911557E-05  0.271671310496E-05  0.274931366222E-05  0.278230542617E-05
  0.281569309128E-05  0.284948140838E-05  0.288367518528E-05  0.291827928750E-05
  0.295329863895E-05  0.298873822262E-05  0.302460308129E-05  0.306089831826E-05
  0.309762909808E-05  0.313480064726E-05  0.317241825503E-05  0.321048727409E-05
  0.324901312138E-05  0.328800127883E-05  0.332745729418E-05  0.336738678171E-05
  0.340779542309E-05  0.344868896817E-05  0.349007323578E-05  0.353195411461E-05
  0.357433756399E-05  0.361722961476E-05  0.366063637013E-05  0.370456400658E-05
  0.374901877465E-05  0.379400699995E-05  0.383953508395E-05  0.388560950496E-05
  0.393223681902E-05  0.397942366084E-05  0.402717674477E-05  0.407550286571E-05
  0.412440890010E-05  0.417390180690E-05  0.422398862858E-05  0.427467649213E-05
  0.432597261003E-05  0.437788428135E-05  0.443041889273E-05  0.448358391944E-05
  0.453738692648E-05  0.459183556959E-05  0.464693759643E-05  0.470270084759E-05
  0.475913325776E-05  0.481624285685E-05  0.487403777113E-05  0.493252622439E-05
  0.499171653908E-05  0.505161713755E-05  0.511223654320E-05  0.517358338172E-05
  0.523566638230E-05  0.529849437888E-05  0.536207631143E-05  0.542642122717E-05
  0.549153828189E-05  0.555743674128E-05  0.562412598217E-05  0.569161549396E-05
  0.575991487989E-05  0.582903385844E-05  0.589898226475E-05  0.596977005192E-05
  0.604140729255E-05  0.611390418006E-05  0.618727103022E-05  0.626151828258E-05
  0.633665650197E-05  0.641269637999E-05  0.648964873655E-05  0.656752452139E-05
  0.664633481565E-05  0.672609083344E-05  0.680680392344E-05  0.688848557052E-05
  0.697114739737E-05  0.705480116613E-05  0.713945878013E-05  0.722513228549E-05
  0.731183387292E-05  0.739957587939E-05  0.748837078994E-05  0.757823123942E-05
  0.766917001430E-05  0.776120005447E-05  0.785433445512E-05  0.794858646858E-05
  0.804396950621E-05  0.814049714028E-05  0.823818310596E-05  0.833704130323E-05
  0.843708579887E-05  0.853833082846E-05  0.864079079840E-05  0.874448028798E-05
  0.884941405144E-05  0.895560702006E-05  0.906307430430E-05  0.917183119595E-05
  0.928189317030E-05  0.939327588834E-05  0.950599519900E-05  0.962006714139E-05
  0.973550794709E-05  0.985233404245E-05  0.997056205096E-05  0.100902087956E-04
  0.102112913011E-04  0.103338267967E-04  0.104578327183E-04  0.105833267109E-04
  0.107103266314E-04  0.108388505510E-04  0.109689167576E-04  0.111005437587E-04
  0.112337502838E-04  0.113685552872E-04  0.115049779507E-04  0.116430376861E-04
  0.117827541383E-04  0.119241471880E-04  0.120672369542E-04  0.122120437977E-04
  0.123585883233E-04  0.125068913831E-04  0.126569740797E-04  0.128088577687E-04
  0.129625640619E-04  0.131181148307E-04  0.132755322086E-04  0.134348385951E-04
  0.135960566583E-04  0.137592093382E-04  0.139243198502E-04  0.140914116884E-04
  0.142605086287E-04  0.144316347322E-04  0.146048143490E-04  0.147800721212E-04
  0.149574329867E-04  0.151369221825E-04  0.153185652487E-04  0.155023880317E-04
  0.156884166881E-04  0.158766776883E-04  0.160671978206E-04  0.162600041944E-04
  0.164551242448E-04  0.166525857357E-04  0.168524167645E-04  0.170546457657E-04
  0.172593015149E-04  0.174664131331E-04  0.176760100907E-04  0.178881222118E-04
  0.181027796783E-04  0.183200130344E-04  0.185398531909E-04  0.187623314291E-04
  0.189874794063E-04  0.192153291592E-04  0.194459131091E-04  0.196792640664E-04
  0.199154152352E-04  0.201544002180E-04  0.203962530206E-04  0.206410080569E-04
  0.208887001536E-04  0.211393645554E-04  0.213930369301E-04  0.216497533732E-04
  0.219095504137E-04  0.221724650187E-04  0.224385345989E-04  0.227077970141E-04
  0.229802905782E-04  0.232560540652E-04  0.235351267140E-04  0.238175482345E-04
  0.241033588133E-04  0.243925991191E-04  0.246853103085E-04  0.249815340322E-04
  0.252813124406E-04  0.255846881899E-04  0.258917044482E-04  0.262024049016E-04
  0.265168337604E-04  0.268350357655E-04  0.271570561947E-04  0.274829408690E-04
  0.278127361595E-04  0.281464889934E-04  0.284842468613E-04  0.288260578236E-04
  0.291719705175E-04  0.295220341637E-04  0.298762985737E-04  0.302348141566E-04