<UPF version="2.0.1">
  <PP_INFO>

 This pseudopotential file has been produced using the code
 ONCVPSP  (Optimized Norm-Conservinng Vanderbilt PSeudopotential)
 scalar-relativistic version 3.2.2 08/07/2015 by D. R. Hamann
 The code is available through a link at URL www.mat-simresearch.com.
 Documentation with the package provides a full discription of the
 input data below.


 While it is not required under the terms of the GNU GPL, it is
 suggested that you cite D. R. Hamann, Phys. Rev. B 88, 085117 (2013)
 in any publication using these pseudopotentials.

    <PP_INPUTFILE>
# ATOM AND REFERENCE CONFIGURATION
# atsym  z   nc   nv     iexc    psfile
  H  1.00    0    1       4      upf
#
#   n    l    f        energy (Ha)
    1    0    1.00
#
# PSEUDOPOTENTIAL AND OPTIMIZATION
# lmax
    0
#
#   l,   rc,     ep,   ncon, nbas, qcut
    0    1.14   -0.24    5    8    9.72
#
# LOCAL POTENTIAL
# lloc, lpopt,  rc(5),   dvloc0
    4    5      0.49       0.00
#
# VANDERBILT-KLEINMAN-BYLANDER PROJECTORs
# l, nproj, debl
    0    2    1.2746
#
# MODEL CORE CHARGE
# icmod, fcfact
    0    0.00
#
# LOG DERIVATIVE ANALYSIS
# epsh1, epsh2, depsh
   -5.00    3.00    0.02
#
# OUTPUT GRID
# rlmax, drl
    6.00    0.01
#
# TEST CONFIGURATIONS
# ncnf
    0
# nvcnf
#   n    l    f
    </PP_INPUTFILE>
  </PP_INFO>
  <!--                               -->
  <!-- END OF HUMAN READABLE SECTION -->
  <!--                               -->
    <PP_HEADER
       generated="Generated using ONCVPSP code by D. R. Hamann"
       author="anonymous"
       date="221025"
       comment="Modified by Emil Briggs to output UPF format on log grid for RMG."
       element="H "
       pseudo_type="NC"
       relativistic="scalar"
       is_ultrasoft="F"
       is_paw="F"
       is_coulomb="F"
       has_so="F"
       has_wfc="F"
       has_gipaw="F"
       core_correction="F"
       functional="PBE"
       z_valence="    1.00"
       total_psenergy="  -9.17545749624E-01"
       rho_cutoff="   1.16500000000E+01"
       l_max="0"
       l_local="-1"
       mesh_size="   956"
       number_of_wfc="1"
       number_of_proj="2"/>
 <PP_MESH>
   <PP_R type="real"  size=" 956" columns="4">
  0.500000000000E-03  0.506000000000E-03  0.512072000000E-03  0.518216864000E-03
  0.524435466368E-03  0.530728691964E-03  0.537097436268E-03  0.543542605503E-03
  0.550065116769E-03  0.556665898170E-03  0.563345888949E-03  0.570106039616E-03
  0.576947312091E-03  0.583870679836E-03  0.590877127994E-03  0.597967653530E-03
  0.605143265373E-03  0.612404984557E-03  0.619753844372E-03  0.627190890504E-03
  0.634717181190E-03  0.642333787365E-03  0.650041792813E-03  0.657842294327E-03
  0.665736401859E-03  0.673725238681E-03  0.681809941545E-03  0.689991660844E-03
  0.698271560774E-03  0.706650819503E-03  0.715130629337E-03  0.723712196889E-03
  0.732396743252E-03  0.741185504171E-03  0.750079730221E-03  0.759080686984E-03
  0.768189655227E-03  0.777407931090E-03  0.786736826263E-03  0.796177668178E-03
  0.805731800197E-03  0.815400581799E-03  0.825185388781E-03  0.835087613446E-03
  0.845108664807E-03  0.855249968785E-03  0.865512968410E-03  0.875899124031E-03
  0.886409913520E-03  0.897046832482E-03  0.907811394472E-03  0.918705131205E-03
  0.929729592780E-03  0.940886347893E-03  0.952176984068E-03  0.963603107877E-03
  0.975166345171E-03  0.986868341313E-03  0.998710761409E-03  0.101069529055E-02
  0.102282363403E-02  0.103509751764E-02  0.104751868785E-02  0.106008891211E-02
  0.107280997905E-02  0.108568369880E-02  0.109871190319E-02  0.111189644602E-02
  0.112523920338E-02  0.113874207382E-02  0.115240697870E-02  0.116623586245E-02
  0.118023069280E-02  0.119439346111E-02  0.120872618264E-02  0.122323089684E-02
  0.123790966760E-02  0.125276458361E-02  0.126779775861E-02  0.128301133172E-02
  0.129840746770E-02  0.131398835731E-02  0.132975621760E-02  0.134571329221E-02
  0.136186185171E-02  0.137820419393E-02  0.139474264426E-02  0.141147955599E-02
  0.142841731066E-02  0.144555831839E-02  0.146290501821E-02  0.148045987843E-02
  0.149822539697E-02  0.151620410174E-02  0.153439855096E-02  0.155281133357E-02
  0.157144506957E-02  0.159030241041E-02  0.160938603933E-02  0.162869867180E-02
  0.164824305587E-02  0.166802197254E-02  0.168803823621E-02  0.170829469504E-02
  0.172879423138E-02  0.174953976216E-02  0.177053423930E-02  0.179178065017E-02
  0.181328201798E-02  0.183504140219E-02  0.185706189902E-02  0.187934664181E-02
  0.190189880151E-02  0.192472158713E-02  0.194781824617E-02  0.197119206513E-02
  0.199484636991E-02  0.201878452635E-02  0.204300994066E-02  0.206752605995E-02
  0.209233637267E-02  0.211744440914E-02  0.214285374205E-02  0.216856798696E-02
  0.219459080280E-02  0.222092589243E-02  0.224757700314E-02  0.227454792718E-02
  0.230184250231E-02  0.232946461233E-02  0.235741818768E-02  0.238570720594E-02
  0.241433569241E-02  0.244330772072E-02  0.247262741336E-02  0.250229894232E-02
  0.253232652963E-02  0.256271444799E-02  0.259346702136E-02  0.262458862562E-02
  0.265608368913E-02  0.268795669340E-02  0.272021217372E-02  0.275285471980E-02
  0.278588897644E-02  0.281931964416E-02  0.285315147989E-02  0.288738929765E-02
  0.292203796922E-02  0.295710242485E-02  0.299258765395E-02  0.302849870579E-02
  0.306484069026E-02  0.310161877855E-02  0.313883820389E-02  0.317650426234E-02
  0.321462231348E-02  0.325319778125E-02  0.329223615462E-02  0.333174298848E-02
  0.337172390434E-02  0.341218459119E-02  0.345313080628E-02  0.349456837596E-02
  0.353650319647E-02  0.357894123483E-02  0.362188852965E-02  0.366535119200E-02
  0.370933540631E-02  0.375384743118E-02  0.379889360036E-02  0.384448032356E-02
  0.389061408744E-02  0.393730145649E-02  0.398454907397E-02  0.403236366286E-02
  0.408075202681E-02  0.412972105113E-02  0.417927770375E-02  0.422942903619E-02
  0.428018218463E-02  0.433154437084E-02  0.438352290329E-02  0.443612517813E-02
  0.448935868027E-02  0.454323098443E-02  0.459774975625E-02  0.465292275332E-02
  0.470875782636E-02  0.476526292028E-02  0.482244607532E-02  0.488031542822E-02
  0.493887921336E-02  0.499814576392E-02  0.505812351309E-02  0.511882099525E-02
  0.518024684719E-02  0.524240980936E-02  0.530531872707E-02  0.536898255179E-02
  0.543341034242E-02  0.549861126652E-02  0.556459460172E-02  0.563136973694E-02
  0.569894617379E-02  0.576733352787E-02  0.583654153021E-02  0.590658002857E-02
  0.597745898891E-02  0.604918849678E-02  0.612177875874E-02  0.619524010384E-02
  0.626958298509E-02  0.634481798091E-02  0.642095579668E-02  0.649800726624E-02
  0.657598335344E-02  0.665489515368E-02  0.673475389552E-02  0.681557094227E-02
  0.689735779358E-02  0.698012608710E-02  0.706388760015E-02  0.714865425135E-02
  0.723443810236E-02  0.732125135959E-02  0.740910637591E-02  0.749801565242E-02
  0.758799184025E-02  0.767904774233E-02  0.777119631524E-02  0.786445067102E-02
  0.795882407907E-02  0.805432996802E-02  0.815098192764E-02  0.824879371077E-02
  0.834777923530E-02  0.844795258612E-02  0.854932801716E-02  0.865191995336E-02
  0.875574299280E-02  0.886081190872E-02  0.896714165162E-02  0.907474735144E-02
  0.918364431966E-02  0.929384805149E-02  0.940537422811E-02  0.951823871885E-02
  0.963245758347E-02  0.974804707448E-02  0.986502363937E-02  0.998340392304E-02
  0.101032047701E-01  0.102244432274E-01  0.103471365461E-01  0.104713021846E-01
  0.105969578109E-01  0.107241213046E-01  0.108528107602E-01  0.109830444894E-01
  0.111148410232E-01  0.112482191155E-01  0.113831977449E-01  0.115197961178E-01
  0.116580336713E-01  0.117979300753E-01  0.119395052362E-01  0.120827792990E-01
  0.122277726506E-01  0.123745059224E-01  0.125229999935E-01  0.126732759934E-01
  0.128253553054E-01  0.129792595690E-01  0.131350106839E-01  0.132926308121E-01
  0.134521423818E-01  0.136135680904E-01  0.137769309075E-01  0.139422540784E-01
  0.141095611273E-01  0.142788758608E-01  0.144502223712E-01  0.146236250396E-01
  0.147991085401E-01  0.149766978426E-01  0.151564182167E-01  0.153382952353E-01
  0.155223547781E-01  0.157086230354E-01  0.158971265119E-01  0.160878920300E-01
  0.162809467344E-01  0.164763180952E-01  0.166740339123E-01  0.168741223193E-01
  0.170766117871E-01  0.172815311285E-01  0.174889095021E-01  0.176987764161E-01
  0.179111617331E-01  0.181260956739E-01  0.183436088220E-01  0.185637321279E-01
  0.187864969134E-01  0.190119348763E-01  0.192400780949E-01  0.194709590320E-01
  0.197046105404E-01  0.199410658669E-01  0.201803586573E-01  0.204225229612E-01
  0.206675932367E-01  0.209156043555E-01  0.211665916078E-01  0.214205907071E-01
  0.216776377956E-01  0.219377694491E-01  0.222010226825E-01  0.224674349547E-01
  0.227370441742E-01  0.230098887043E-01  0.232860073687E-01  0.235654394571E-01
  0.238482247306E-01  0.241344034274E-01  0.244240162685E-01  0.247171044637E-01
  0.250137097173E-01  0.253138742339E-01  0.256176407247E-01  0.259250524134E-01
  0.262361530424E-01  0.265509868789E-01  0.268695987214E-01  0.271920339061E-01
  0.275183383130E-01  0.278485583727E-01  0.281827410732E-01  0.285209339661E-01
  0.288631851737E-01  0.292095433957E-01  0.295600579165E-01  0.299147786115E-01
  0.302737559548E-01  0.306370410263E-01  0.310046855186E-01  0.313767417448E-01
  0.317532626458E-01  0.321343017975E-01  0.325199134191E-01  0.329101523801E-01
  0.333050742087E-01  0.337047350992E-01  0.341091919204E-01  0.345185022234E-01
  0.349327242501E-01  0.353519169411E-01  0.357761399444E-01  0.362054536237E-01
  0.366399190672E-01  0.370795980960E-01  0.375245532731E-01  0.379748479124E-01
  0.384305460874E-01  0.388917126404E-01  0.393584131921E-01  0.398307141504E-01
  0.403086827202E-01  0.407923869129E-01  0.412818955558E-01  0.417772783025E-01
  0.422786056421E-01  0.427859489098E-01  0.432993802967E-01  0.438189728603E-01
  0.443448005346E-01  0.448769381410E-01  0.454154613987E-01  0.459604469355E-01
  0.465119722987E-01  0.470701159663E-01  0.476349573579E-01  0.482065768462E-01
  0.487850557684E-01  0.493704764376E-01  0.499629221548E-01  0.505624772207E-01
  0.511692269474E-01  0.517832576707E-01  0.524046567628E-01  0.530335126439E-01
  0.536699147957E-01  0.543139537732E-01  0.549657212185E-01  0.556253098731E-01
  0.562928135916E-01  0.569683273547E-01  0.576519472829E-01  0.583437706503E-01
  0.590438958981E-01  0.597524226489E-01  0.604694517207E-01  0.611950851413E-01
  0.619294261630E-01  0.626725792770E-01  0.634246502283E-01  0.641857460311E-01
  0.649559749834E-01  0.657354466832E-01  0.665242720434E-01  0.673225633080E-01
  0.681304340676E-01  0.689479992765E-01  0.697753752678E-01  0.706126797710E-01
  0.714600319282E-01  0.723175523114E-01  0.731853629391E-01  0.740635872944E-01
  0.749523503419E-01  0.758517785460E-01  0.767619998886E-01  0.776831438872E-01
  0.786153416139E-01  0.795587257133E-01  0.805134304218E-01  0.814795915869E-01
  0.824573466859E-01  0.834468348461E-01  0.844481968643E-01  0.854615752267E-01
  0.864871141294E-01  0.875249594989E-01  0.885752590129E-01  0.896381621211E-01
  0.907138200665E-01  0.918023859073E-01  0.929040145382E-01  0.940188627127E-01
  0.951470890652E-01  0.962888541340E-01  0.974443203836E-01  0.986136522282E-01
  0.997970160550E-01  0.100994580248E+00  0.102206515211E+00  0.103432993393E+00
  0.104674189314E+00  0.105930279586E+00  0.107201442941E+00  0.108487860256E+00
  0.109789714579E+00  0.111107191154E+00  0.112440477448E+00  0.113789763177E+00
  0.115155240335E+00  0.116537103219E+00  0.117935548458E+00  0.119350775039E+00
  0.120782984340E+00  0.122232380152E+00  0.123699168714E+00  0.125183558738E+00
  0.126685761443E+00  0.128205990581E+00  0.129744462468E+00  0.131301396017E+00
  0.132877012769E+00  0.134471536923E+00  0.136085195366E+00  0.137718217710E+00
  0.139370836323E+00  0.141043286358E+00  0.142735805795E+00  0.144448635464E+00
  0.146182019090E+00  0.147936203319E+00  0.149711437759E+00  0.151507975012E+00
  0.153326070712E+00  0.155165983561E+00  0.157027975363E+00  0.158912311068E+00
  0.160819258800E+00  0.162749089906E+00  0.164702078985E+00  0.166678503933E+00
  0.168678645980E+00  0.170702789732E+00  0.172751223208E+00  0.174824237887E+00
  0.176922128742E+00  0.179045194287E+00  0.181193736618E+00  0.183368061457E+00
  0.185568478195E+00  0.187795299933E+00  0.190048843532E+00  0.192329429655E+00
  0.194637382811E+00  0.196973031404E+00  0.199336707781E+00  0.201728748275E+00
  0.204149493254E+00  0.206599287173E+00  0.209078478619E+00  0.211587420362E+00
  0.214126469407E+00  0.216695987040E+00  0.219296338884E+00  0.221927894951E+00
  0.224591029690E+00  0.227286122046E+00  0.230013555511E+00  0.232773718177E+00
  0.235567002795E+00  0.238393806829E+00  0.241254532511E+00  0.244149586901E+00
  0.247079381944E+00  0.250044334527E+00  0.253044866541E+00  0.256081404940E+00
  0.259154381799E+00  0.262264234381E+00  0.265411405193E+00  0.268596342056E+00
  0.271819498160E+00  0.275081332138E+00  0.278382308124E+00  0.281722895821E+00
  0.285103570571E+00  0.288524813418E+00  0.291987111179E+00  0.295490956513E+00
  0.299036847991E+00  0.302625290167E+00  0.306256793649E+00  0.309931875173E+00
  0.313651057675E+00  0.317414870367E+00  0.321223848812E+00  0.325078534997E+00
  0.328979477417E+00  0.332927231146E+00  0.336922357920E+00  0.340965426215E+00
  0.345057011330E+00  0.349197695466E+00  0.353388067811E+00  0.357628724625E+00
  0.361920269320E+00  0.366263312552E+00  0.370658472303E+00  0.375106373971E+00
  0.379607650458E+00  0.384162942264E+00  0.388772897571E+00  0.393438172342E+00
  0.398159430410E+00  0.402937343575E+00  0.407772591698E+00  0.412665862798E+00
  0.417617853152E+00  0.422629267389E+00  0.427700818598E+00  0.432833228421E+00
  0.438027227162E+00  0.443283553888E+00  0.448602956535E+00  0.453986192013E+00
  0.459434026318E+00  0.464947234633E+00  0.470526601449E+00  0.476172920666E+00
  0.481886995714E+00  0.487669639663E+00  0.493521675339E+00  0.499443935443E+00
  0.505437262668E+00  0.511502509820E+00  0.517640539938E+00  0.523852226417E+00
  0.530138453134E+00  0.536500114572E+00  0.542938115947E+00  0.549453373338E+00
  0.556046813818E+00  0.562719375584E+00  0.569472008091E+00  0.576305672188E+00
  0.583221340254E+00  0.590219996338E+00  0.597302636294E+00  0.604470267929E+00
  0.611723911144E+00  0.619064598078E+00  0.626493373255E+00  0.634011293734E+00
  0.641619429259E+00  0.649318862410E+00  0.657110688759E+00  0.664996017024E+00
  0.672975969228E+00  0.681051680859E+00  0.689224301029E+00  0.697494992642E+00
  0.705864932553E+00  0.714335311744E+00  0.722907335485E+00  0.731582223511E+00
  0.740361210193E+00  0.749245544715E+00  0.758236491252E+00  0.767335329147E+00
  0.776543353096E+00  0.785861873334E+00  0.795292215814E+00  0.804835722403E+00
  0.814493751072E+00  0.824267676085E+00  0.834158888198E+00  0.844168794856E+00
  0.854298820395E+00  0.864550406240E+00  0.874925011114E+00  0.885424111248E+00
  0.896049200583E+00  0.906801790990E+00  0.917683412482E+00  0.928695613431E+00
  0.939839960793E+00  0.951118040322E+00  0.962531456806E+00  0.974081834288E+00
  0.985770816299E+00  0.997600066095E+00  0.100957126689E+01  0.102168612209E+01
  0.103394635556E+01  0.104635371182E+01  0.105890995636E+01  0.107161687584E+01
  0.108447627835E+01  0.109748999369E+01  0.111065987361E+01  0.112398779210E+01
  0.113747564560E+01  0.115112535335E+01  0.116493885759E+01  0.117891812388E+01
  0.119306514137E+01  0.120738192307E+01  0.122187050614E+01  0.123653295222E+01
  0.125137134764E+01  0.126638780381E+01  0.128158445746E+01  0.129696347095E+01
  0.131252703260E+01  0.132827735699E+01  0.134421668528E+01  0.136034728550E+01
  0.137667145292E+01  0.139319151036E+01  0.140990980848E+01  0.142682872619E+01
  0.144395067090E+01  0.146127807895E+01  0.147881341590E+01  0.149655917689E+01
  0.151451788701E+01  0.153269210166E+01  0.155108440688E+01  0.156969741976E+01
  0.158853378880E+01  0.160759619426E+01  0.162688734859E+01  0.164640999678E+01
  0.166616691674E+01  0.168616091974E+01  0.170639485077E+01  0.172687158898E+01
  0.174759404805E+01  0.176856517663E+01  0.178978795875E+01  0.181126541425E+01
  0.183300059922E+01  0.185499660641E+01  0.187725656569E+01  0.189978364448E+01
  0.192258104821E+01  0.194565202079E+01  0.196899984504E+01  0.199262784318E+01
  0.201653937730E+01  0.204073784983E+01  0.206522670403E+01  0.209000942447E+01
  0.211508953757E+01  0.214047061202E+01  0.216615625936E+01  0.219215013448E+01
  0.221845593609E+01  0.224507740732E+01  0.227201833621E+01  0.229928255624E+01
  0.232687394692E+01  0.235479643428E+01  0.238305399149E+01  0.241165063939E+01
  0.244059044706E+01  0.246987753243E+01  0.249951606282E+01  0.252951025557E+01
  0.255986437864E+01  0.259058275118E+01  0.262166974420E+01  0.265312978113E+01
  0.268496733850E+01  0.271718694656E+01  0.274979318992E+01  0.278279070820E+01
  0.281618419670E+01  0.284997840706E+01  0.288417814794E+01  0.291878828572E+01
  0.295381374515E+01  0.298925951009E+01  0.302513062421E+01  0.306143219170E+01
  0.309816937800E+01  0.313534741054E+01  0.317297157946E+01  0.321104723842E+01
  0.324957980528E+01  0.328857476294E+01  0.332803766010E+01  0.336797411202E+01
  0.340838980136E+01  0.344929047898E+01  0.349068196473E+01  0.353257014830E+01
  0.357496099008E+01  0.361786052196E+01  0.366127484823E+01  0.370521014641E+01
  0.374967266816E+01  0.379466874018E+01  0.384020476506E+01  0.388628722224E+01
  0.393292266891E+01  0.398011774094E+01  0.402787915383E+01  0.407621370368E+01
  0.412512826812E+01  0.417462980734E+01  0.422472536503E+01  0.427542206941E+01
  0.432672713424E+01  0.437864785985E+01  0.443119163417E+01  0.448436593378E+01
  0.453817832498E+01  0.459263646488E+01  0.464774810246E+01  0.470352107969E+01
  0.475996333265E+01  0.481708289264E+01  0.487488788735E+01  0.493338654200E+01
  0.499258718050E+01  0.505249822667E+01  0.511312820539E+01  0.517448574385E+01
  0.523657957278E+01  0.529941852765E+01  0.536301154998E+01  0.542736768858E+01
  0.549249610085E+01  0.555840605406E+01  0.562510692671E+01  0.569260820983E+01
  0.576091950834E+01  0.583005054244E+01  0.590001114895E+01  0.597081128274E+01
  0.604246101813E+01  0.611497055035E+01  0.618835019696E+01  0.626261039932E+01
  0.633776172411E+01  0.641381486480E+01  0.649078064318E+01  0.656867001090E+01
  0.664749405103E+01  0.672726397964E+01  0.680799114740E+01  0.688968704116E+01
  0.697236328566E+01  0.705603164509E+01  0.714070402483E+01  0.722639247313E+01
  0.731310918280E+01  0.740086649300E+01  0.748967689091E+01  0.757955301360E+01
  0.767050764977E+01  0.776255374156E+01  0.785570438646E+01  0.794997283910E+01
  0.804537251317E+01  0.814191698333E+01  0.823961998713E+01  0.833849542697E+01
  0.843855737210E+01  0.853982006056E+01  0.864229790129E+01  0.874600547610E+01
  0.885095754182E+01  0.895716903232E+01  0.906465506071E+01  0.917343092143E+01
  0.928351209249E+01  0.939491423760E+01  0.950765320845E+01  0.962174504695E+01
  0.973720598752E+01  0.985405245937E+01  0.997230108888E+01  0.100919687019E+02
  0.102130723264E+02  0.103356291943E+02  0.104596567446E+02  0.105851726256E+02
  0.107121946971E+02  0.108407410334E+02  0.109708299258E+02  0.111024798849E+02
  0.112357096436E+02  0.113705381593E+02  0.115069846172E+02  0.116450684326E+02
  0.117848092538E+02  0.119262269648E+02  0.120693416884E+02  0.122141737887E+02
  0.123607438741E+02  0.125090728006E+02  0.126591816742E+02  0.128110918543E+02
  0.129648249566E+02  0.131204028561E+02  0.132778476903E+02  0.134371818626E+02
  0.135984280450E+02  0.137616091815E+02  0.139267484917E+02  0.140938694736E+02
  0.142629959073E+02  0.144341518582E+02  0.146073616804E+02  0.147826500206E+02
  0.149600418209E+02  0.151395623227E+02  0.153212370706E+02  0.155050919154E+02
  0.156911530184E+02  0.158794468546E+02  0.160700002169E+02  0.162628402195E+02
  0.164579943021E+02  0.166554902338E+02  0.168553561166E+02  0.170576203900E+02
  0.172623118346E+02  0.174694595767E+02  0.176790930916E+02  0.178912422087E+02
  0.181059371152E+02  0.183232083606E+02  0.185430868609E+02  0.187656039032E+02
  0.189907911501E+02  0.192186806439E+02  0.194493048116E+02  0.196826964693E+02
  0.199188888270E+02  0.201579154929E+02  0.203998104788E+02  0.206446082045E+02
  0.208923435030E+02  0.211430516250E+02  0.213967682445E+02  0.216535294635E+02
  0.219133718170E+02  0.221763322788E+02  0.224424482662E+02  0.227117576454E+02
  0.229842987371E+02  0.232601103220E+02  0.235392316458E+02  0.238217024256E+02
  0.241075628547E+02  0.243968536089E+02  0.246896158522E+02  0.249858912425E+02
  0.252857219374E+02  0.255891506006E+02  0.258962204078E+02  0.262069750527E+02
  0.265214587534E+02  0.268397162584E+02  0.271617928535E+02  0.274877343677E+02
  0.278175871802E+02  0.281513982263E+02  0.284892150050E+02  0.288310855851E+02
  0.291770586121E+02  0.295271833155E+02  0.298815095152E+02  0.302400876294E+02
  0.306029686810E+02  0.309702043052E+02  0.313418467568E+02  0.317179489179E+02
  0.320985643049E+02  0.324837470766E+02  0.328735520415E+02  0.332680346660E+02
  0.336672510820E+02  0.340712580950E+02  0.344801131921E+02  0.348938745504E+02
  0.353126010450E+02  0.357363522576E+02  0.361651884846E+02  0.365991707465E+02
  0.370383607954E+02  0.374828211250E+02  0.379326149785E+02  0.383878063582E+02
  0.388484600345E+02  0.393146415549E+02  0.397864172536E+02  0.402638542606E+02
  0.407470205117E+02  0.412359847579E+02  0.417308165750E+02  0.422315863739E+02
  0.427383654104E+02  0.432512257953E+02  0.437702405048E+02  0.442954833909E+02
   </PP_R>
   <PP_RAB type="real"  size=" 956" columns="4">
  0.596428543264E-05  0.603585685783E-05  0.610828714012E-05  0.618158658580E-05
  0.625576562483E-05  0.633083481233E-05  0.640680483008E-05  0.648368648804E-05
  0.656149072590E-05  0.664022861461E-05  0.671991135798E-05  0.680055029428E-05
  0.688215689781E-05  0.696474278058E-05  0.704831969395E-05  0.713289953028E-05
  0.721849432464E-05  0.730511625654E-05  0.739277765162E-05  0.748149098344E-05
  0.757126887524E-05  0.766212410174E-05  0.775406959096E-05  0.784711842605E-05
  0.794128384716E-05  0.803657925333E-05  0.813301820437E-05  0.823061442282E-05
  0.832938179590E-05  0.842933437745E-05  0.853048638998E-05  0.863285222666E-05
  0.873644645338E-05  0.884128381082E-05  0.894737921655E-05  0.905474776715E-05
  0.916340474035E-05  0.927336559724E-05  0.938464598440E-05  0.949726173621E-05
  0.961122887705E-05  0.972656362357E-05  0.984328238706E-05  0.996140177570E-05
  0.100809385970E-04  0.102019098602E-04  0.103243327785E-04  0.104482247718E-04
  0.105736034691E-04  0.107004867107E-04  0.108288925513E-04  0.109588392619E-04
  0.110903453330E-04  0.112234294770E-04  0.113581106307E-04  0.114944079583E-04
  0.116323408538E-04  0.117719289441E-04  0.119131920914E-04  0.120561503965E-04
  0.122008242012E-04  0.123472340916E-04  0.124954009007E-04  0.126453457116E-04
  0.127970898601E-04  0.129506549384E-04  0.131060627977E-04  0.132633355512E-04
  0.134224955779E-04  0.135835655248E-04  0.137465683111E-04  0.139115271308E-04
  0.140784654564E-04  0.142474070419E-04  0.144183759264E-04  0.145913964375E-04
  0.147664931947E-04  0.149436911131E-04  0.151230154064E-04  0.153044915913E-04
  0.154881454904E-04  0.156740032363E-04  0.158620912751E-04  0.160524363704E-04
  0.162450656069E-04  0.164400063942E-04  0.166372864709E-04  0.168369339085E-04
  0.170389771154E-04  0.172434448408E-04  0.174503661789E-04  0.176597705731E-04
  0.178716878199E-04  0.180861480738E-04  0.183031818507E-04  0.185228200329E-04
  0.187450938733E-04  0.189700349998E-04  0.191976754197E-04  0.194280475248E-04
  0.196611840951E-04  0.198971183042E-04  0.201358837239E-04  0.203775143286E-04
  0.206220445005E-04  0.208695090345E-04  0.211199431429E-04  0.213733824606E-04
  0.216298630502E-04  0.218894214068E-04  0.221520944636E-04  0.224179195972E-04
  0.226869346324E-04  0.229591778480E-04  0.232346879821E-04  0.235135042379E-04
  0.237956662888E-04  0.240812142843E-04  0.243701888557E-04  0.246626311219E-04
  0.249585826954E-04  0.252580856877E-04  0.255611827160E-04  0.258679169086E-04
  0.261783319115E-04  0.264924718944E-04  0.268103815572E-04  0.271321061358E-04
  0.274576914095E-04  0.277871837064E-04  0.281206299109E-04  0.284580774698E-04
  0.287995743994E-04  0.291451692922E-04  0.294949113237E-04  0.298488502596E-04
  0.302070364627E-04  0.305695209003E-04  0.309363551511E-04  0.313075914129E-04
  0.316832825099E-04  0.320634819000E-04  0.324482436828E-04  0.328376226070E-04
  0.332316740782E-04  0.336304541672E-04  0.340340196172E-04  0.344424278526E-04
  0.348557369868E-04  0.352740058307E-04  0.356972939006E-04  0.361256614274E-04
  0.365591693646E-04  0.369978793970E-04  0.374418539497E-04  0.378911561971E-04
  0.383458500715E-04  0.388060002723E-04  0.392716722756E-04  0.397429323429E-04
  0.402198475310E-04  0.407024857014E-04  0.411909155298E-04  0.416852065162E-04
  0.421854289944E-04  0.426916541423E-04  0.432039539920E-04  0.437224014399E-04
  0.442470702572E-04  0.447780351003E-04  0.453153715215E-04  0.458591559797E-04
  0.464094658515E-04  0.469663794417E-04  0.475299759950E-04  0.481003357070E-04
  0.486775397354E-04  0.492616702123E-04  0.498528102548E-04  0.504510439779E-04
  0.510564565056E-04  0.516691339837E-04  0.522891635915E-04  0.529166335546E-04
  0.535516331572E-04  0.541942527551E-04  0.548445837882E-04  0.555027187936E-04
  0.561687514192E-04  0.568427764362E-04  0.575248897534E-04  0.582151884305E-04
  0.589137706916E-04  0.596207359399E-04  0.603361847712E-04  0.610602189885E-04
  0.617929416163E-04  0.625344569157E-04  0.632848703987E-04  0.640442888435E-04
  0.648128203096E-04  0.655905741533E-04  0.663776610432E-04  0.671741929757E-04
  0.679802832914E-04  0.687960466909E-04  0.696215992512E-04  0.704570584422E-04
  0.713025431435E-04  0.721581736612E-04  0.730240717452E-04  0.739003606061E-04
  0.747871649334E-04  0.756846109126E-04  0.765928262435E-04  0.775119401584E-04
  0.784420834403E-04  0.793833884416E-04  0.803359891029E-04  0.813000209722E-04
  0.822756212238E-04  0.832629286785E-04  0.842620838227E-04  0.852732288285E-04
  0.862965075745E-04  0.873320656654E-04  0.883800504534E-04  0.894406110588E-04
  0.905138983915E-04  0.916000651722E-04  0.926992659543E-04  0.938116571457E-04
  0.949373970315E-04  0.960766457958E-04  0.972295655454E-04  0.983963203319E-04
  0.995770761759E-04  0.100772001090E-03  0.101981265103E-03  0.103205040284E-03
  0.104443500768E-03  0.105696822777E-03  0.106965184650E-03  0.108248766866E-03
  0.109547752068E-03  0.110862325093E-03  0.112192672994E-03  0.113538985070E-03
  0.114901452891E-03  0.116280270326E-03  0.117675633570E-03  0.119087741173E-03
  0.120516794067E-03  0.121962995596E-03  0.123426551543E-03  0.124907670161E-03
  0.126406562203E-03  0.127923440950E-03  0.129458522241E-03  0.131012024508E-03
  0.132584168802E-03  0.134175178828E-03  0.135785280973E-03  0.137414704345E-03
  0.139063680797E-03  0.140732444967E-03  0.142421234306E-03  0.144130289118E-03
  0.145859852588E-03  0.147610170819E-03  0.149381492868E-03  0.151174070783E-03
  0.152988159632E-03  0.154824017548E-03  0.156681905758E-03  0.158562088628E-03
  0.160464833691E-03  0.162390411695E-03  0.164339096636E-03  0.166311165795E-03
  0.168306899785E-03  0.170326582582E-03  0.172370501573E-03  0.174438947592E-03
  0.176532214963E-03  0.178650601543E-03  0.180794408761E-03  0.182963941666E-03
  0.185159508966E-03  0.187381423074E-03  0.189630000151E-03  0.191905560153E-03
  0.194208426875E-03  0.196538927997E-03  0.198897395133E-03  0.201284163875E-03
  0.203699573841E-03  0.206143968727E-03  0.208617696352E-03  0.211121108708E-03
  0.213654562013E-03  0.216218416757E-03  0.218813037758E-03  0.221438794211E-03
  0.224096059742E-03  0.226785212458E-03  0.229506635008E-03  0.232260714628E-03
  0.235047843204E-03  0.237868417322E-03  0.240722838330E-03  0.243611512390E-03
  0.246534850539E-03  0.249493268745E-03  0.252487187970E-03  0.255517034226E-03
  0.258583238636E-03  0.261686237500E-03  0.264826472350E-03  0.268004390018E-03
  0.271220442698E-03  0.274475088011E-03  0.277768789067E-03  0.281102014536E-03
  0.284475238710E-03  0.287888941575E-03  0.291343608873E-03  0.294839732180E-03
  0.298377808966E-03  0.301958342674E-03  0.305581842786E-03  0.309248824899E-03
  0.312959810798E-03  0.316715328528E-03  0.320515912470E-03  0.324362103420E-03
  0.328254448661E-03  0.332193502045E-03  0.336179824069E-03  0.340213981958E-03
  0.344296549741E-03  0.348428108338E-03  0.352609245638E-03  0.356840556586E-03
  0.361122643265E-03  0.365456114984E-03  0.369841588364E-03  0.374279687424E-03
  0.378771043674E-03  0.383316296198E-03  0.387916091752E-03  0.392571084853E-03
  0.397281937871E-03  0.402049321126E-03  0.406873912979E-03  0.411756399935E-03
  0.416697476734E-03  0.421697846455E-03  0.426758220612E-03  0.431879319260E-03
  0.437061871091E-03  0.442306613544E-03  0.447614292907E-03  0.452985664421E-03
  0.458421492394E-03  0.463922550303E-03  0.469489620907E-03  0.475123496358E-03
  0.480824978314E-03  0.486594878054E-03  0.492434016590E-03  0.498343224789E-03
  0.504323343487E-03  0.510375223609E-03  0.516499726292E-03  0.522697723008E-03
  0.528970095684E-03  0.535317736832E-03  0.541741549674E-03  0.548242448270E-03
  0.554821357649E-03  0.561479213941E-03  0.568216964508E-03  0.575035568082E-03
  0.581935994899E-03  0.588919226838E-03  0.595986257560E-03  0.603138092651E-03
  0.610375749763E-03  0.617700258760E-03  0.625112661865E-03  0.632614013807E-03
  0.640205381973E-03  0.647887846557E-03  0.655662500715E-03  0.663530450724E-03
  0.671492816133E-03  0.679550729926E-03  0.687705338685E-03  0.695957802750E-03
  0.704309296383E-03  0.712761007939E-03  0.721314140035E-03  0.729969909715E-03
  0.738729548632E-03  0.747594303215E-03  0.756565434854E-03  0.765644220072E-03
  0.774831950713E-03  0.784129934121E-03  0.793539493331E-03  0.803061967251E-03