<UPF version="2.0.1">
  <PP_INFO>

 This pseudopotential file has been produced using the code
 ONCVPSP  (Optimized Norm-Conservinng Vanderbilt PSeudopotential)
 scalar-relativistic version 3.2.2 08/07/2015 by D. R. Hamann
 The code is available through a link at URL www.mat-simresearch.com.
 Documentation with the package provides a full discription of the
 input data below.


 While it is not required under the terms of the GNU GPL, it is
 suggested that you cite D. R. Hamann, Phys. Rev. B 88, 085117 (2013)
 in any publication using these pseudopotentials.

    <PP_INPUTFILE>
# ATOM AND REFERENCE CONFIGURATION
# atsym  z   nc   nv     iexc    psfile
  Na 11.00    1    3       4      upf
#
#   n    l    f        energy (Ha)
    1    0    2.00
    2    0    2.00
    2    1    6.00
    3    0    1.00
#
# PSEUDOPOTENTIAL AND OPTIMIZATION
# lmax
    1
#
#   l,   rc,     ep,   ncon, nbas, qcut
    0    1.46   -2.09    5    8   11.35
    1    2.30   -1.05    5    8    6.71
#
# LOCAL POTENTIAL
# lloc, lpopt,  rc(5),   dvloc0
    4    5      1.31       0.00
#
# VANDERBILT-KLEINMAN-BYLANDER PROJECTORs
# l, nproj, debl
    0    2    1.9848
    1    2    1.0264
#
# MODEL CORE CHARGE
# icmod, fcfact
    0    0.00
#
# LOG DERIVATIVE ANALYSIS
# epsh1, epsh2, depsh
   -5.00    3.00    0.02
#
# OUTPUT GRID
# rlmax, drl
    6.00    0.01
#
# TEST CONFIGURATIONS
# ncnf
    0
# nvcnf
#   n    l    f
    </PP_INPUTFILE>
  </PP_INFO>
  <!--                               -->
  <!-- END OF HUMAN READABLE SECTION -->
  <!--                               -->
    <PP_HEADER
       generated="Generated using ONCVPSP code by D. R. Hamann"
       author="anonymous"
       date="221025"
       comment="Modified by Emil Briggs to output UPF format on log grid for RMG."
       element="Na"
       pseudo_type="NC"
       relativistic="scalar"
       is_ultrasoft="F"
       is_paw="F"
       is_coulomb="F"
       has_so="F"
       has_wfc="F"
       has_gipaw="F"
       core_correction="F"
       functional="PBE"
       z_valence="    9.00"
       total_psenergy="  -8.51040223918E+01"
       rho_cutoff="   1.99100000000E+01"
       l_max="1"
       l_local="-1"
       mesh_size="  1157"
       number_of_wfc="3"
       number_of_proj="4"/>
 <PP_MESH>
   <PP_R type="real"  size="1157" columns="4">
  0.454545454545E-04  0.460000000000E-04  0.465520000000E-04  0.471106240000E-04
  0.476759514880E-04  0.482480629059E-04  0.488270396607E-04  0.494129641367E-04
  0.500059197063E-04  0.506059907428E-04  0.512132626317E-04  0.518278217833E-04
  0.524497556447E-04  0.530791527124E-04  0.537161025449E-04  0.543606957755E-04
  0.550130241248E-04  0.556731804143E-04  0.563412585793E-04  0.570173536822E-04
  0.577015619264E-04  0.583939806695E-04  0.590947084376E-04  0.598038449388E-04
  0.605214910781E-04  0.612477489710E-04  0.619827219587E-04  0.627265146222E-04
  0.634792327976E-04  0.642409835912E-04  0.650118753943E-04  0.657920178990E-04
  0.665815221138E-04  0.673805003792E-04  0.681890663837E-04  0.690073351803E-04
  0.698354232025E-04  0.706734482809E-04  0.715215296603E-04  0.723797880162E-04
  0.732483454724E-04  0.741273256181E-04  0.750168535255E-04  0.759170557678E-04
  0.768280604370E-04  0.777499971623E-04  0.786829971282E-04  0.796271930938E-04
  0.805827194109E-04  0.815497120438E-04  0.825283085883E-04  0.835186482914E-04
  0.845208720709E-04  0.855351225357E-04  0.865615440062E-04  0.876002825342E-04
  0.886514859247E-04  0.897153037557E-04  0.907918874008E-04  0.918813900496E-04
  0.929839667302E-04  0.940997743310E-04  0.952289716230E-04  0.963717192824E-04
  0.975281799138E-04  0.986985180728E-04  0.998829002897E-04  0.101081495093E-03
  0.102294473034E-03  0.103522006711E-03  0.104764270791E-03  0.106021442041E-03
  0.107293699345E-03  0.108581223737E-03  0.109884198422E-03  0.111202808803E-03
  0.112537242509E-03  0.113887689419E-03  0.115254341692E-03  0.116637393792E-03
  0.118037042518E-03  0.119453487028E-03  0.120886928872E-03  0.122337572019E-03
  0.123805622883E-03  0.125291290358E-03  0.126794785842E-03  0.128316323272E-03
  0.129856119151E-03  0.131414392581E-03  0.132991365292E-03  0.134587261676E-03
  0.136202308816E-03  0.137836736522E-03  0.139490777360E-03  0.141164666688E-03
  0.142858642688E-03  0.144572946401E-03  0.146307821757E-03  0.148063515618E-03
  0.149840277806E-03  0.151638361140E-03  0.153458021473E-03  0.155299517731E-03
  0.157163111944E-03  0.159049069287E-03  0.160957658118E-03  0.162889150016E-03
  0.164843819816E-03  0.166821945654E-03  0.168823809002E-03  0.170849694710E-03
  0.172899891046E-03  0.174974689739E-03  0.177074386016E-03  0.179199278648E-03
  0.181349669992E-03  0.183525866032E-03  0.185728176424E-03  0.187956914541E-03
  0.190212397516E-03  0.192494946286E-03  0.194804885641E-03  0.197142544269E-03
  0.199508254800E-03  0.201902353858E-03  0.204325182104E-03  0.206777084289E-03
  0.209258409301E-03  0.211769510212E-03  0.214310744335E-03  0.216882473267E-03
  0.219485062946E-03  0.222118883701E-03  0.224784310306E-03  0.227481722029E-03
  0.230211502694E-03  0.232974040726E-03  0.235769729215E-03  0.238598965965E-03
  0.241462153557E-03  0.244359699400E-03  0.247292015793E-03  0.250259519982E-03
  0.253262634222E-03  0.256301785832E-03  0.259377407262E-03  0.262489936150E-03
  0.265639815383E-03  0.268827493168E-03  0.272053423086E-03  0.275318064163E-03
  0.278621880933E-03  0.281965343504E-03  0.285348927626E-03  0.288773114758E-03
  0.292238392135E-03  0.295745252840E-03  0.299294195875E-03  0.302885726225E-03
  0.306520354940E-03  0.310198599199E-03  0.313920982389E-03  0.317688034178E-03
  0.321500290588E-03  0.325358294075E-03  0.329262593604E-03  0.333213744727E-03
  0.337212309664E-03  0.341258857380E-03  0.345353963669E-03  0.349498211233E-03
  0.353692189768E-03  0.357936496045E-03  0.362231733997E-03  0.366578514805E-03
  0.370977456983E-03  0.375429186467E-03  0.379934336704E-03  0.384493548745E-03
  0.389107471330E-03  0.393776760986E-03  0.398502082117E-03  0.403284107103E-03
  0.408123516388E-03  0.413020998585E-03  0.417977250568E-03  0.422992977575E-03
  0.428068893306E-03  0.433205720025E-03  0.438404188665E-03  0.443665038929E-03
  0.448989019397E-03  0.454376887629E-03  0.459829410281E-03  0.465347363204E-03
  0.470931531563E-03  0.476582709942E-03  0.482301702461E-03  0.488089322890E-03
  0.493946394765E-03  0.499873751502E-03  0.505872236520E-03  0.511942703358E-03
  0.518086015799E-03  0.524303047988E-03  0.530594684564E-03  0.536961820779E-03
  0.543405362628E-03  0.549926226980E-03  0.556525341704E-03  0.563203645804E-03
  0.569962089554E-03  0.576801634628E-03  0.583723254244E-03  0.590727933295E-03
  0.597816668494E-03  0.604990468516E-03  0.612250354139E-03  0.619597358388E-03
  0.627032526689E-03  0.634556917009E-03  0.642171600013E-03  0.649877659213E-03
  0.657676191124E-03  0.665568305417E-03  0.673555125082E-03  0.681637786583E-03
  0.689817440022E-03  0.698095249303E-03  0.706472392294E-03  0.714950061002E-03
  0.723529461734E-03  0.732211815275E-03  0.740998357058E-03  0.749890337343E-03
  0.758889021391E-03  0.767995689647E-03  0.777211637923E-03  0.786538177578E-03
  0.795976635709E-03  0.805528355338E-03  0.815194695602E-03  0.824977031949E-03
  0.834876756332E-03  0.844895277408E-03  0.855034020737E-03  0.865294428986E-03
  0.875677962134E-03  0.886186097680E-03  0.896820330852E-03  0.907582174822E-03
  0.918473160920E-03  0.929494838851E-03  0.940648776917E-03  0.951936562240E-03
  0.963359800987E-03  0.974920118599E-03  0.986619160022E-03  0.998458589942E-03
  0.101044009302E-02  0.102256537414E-02  0.103483615863E-02  0.104725419253E-02
  0.105982124284E-02  0.107253909776E-02  0.108540956693E-02  0.109843448173E-02
  0.111161569551E-02  0.112495508386E-02  0.113845454486E-02  0.115211599940E-02
  0.116594139140E-02  0.117993268809E-02  0.119409188035E-02  0.120842098291E-02
  0.122292203471E-02  0.123759709913E-02  0.125244826432E-02  0.126747764349E-02
  0.128268737521E-02  0.129807962371E-02  0.131365657920E-02  0.132942045815E-02
  0.134537350364E-02  0.136151798569E-02  0.137785620152E-02  0.139439047593E-02
  0.141112316165E-02  0.142805663959E-02  0.144519331926E-02  0.146253563909E-02
  0.148008606676E-02  0.149784709956E-02  0.151582126476E-02  0.153401111993E-02
  0.155241925337E-02  0.157104828441E-02  0.158990086383E-02  0.160897967419E-02
  0.162828743028E-02  0.164782687945E-02  0.166760080200E-02  0.168761201162E-02
  0.170786335576E-02  0.172835771603E-02  0.174909800862E-02  0.177008718473E-02
  0.179132823094E-02  0.181282416972E-02  0.183457805975E-02  0.185659299647E-02
  0.187887211243E-02  0.190141857778E-02  0.192423560071E-02  0.194732642792E-02
  0.197069434505E-02  0.199434267719E-02  0.201827478932E-02  0.204249408679E-02
  0.206700401583E-02  0.209180806402E-02  0.211690976079E-02  0.214231267792E-02
  0.216802043006E-02  0.219403667522E-02  0.222036511532E-02  0.224700949670E-02
  0.227397361066E-02  0.230126129399E-02  0.232887642952E-02  0.235682294667E-02
  0.238510482203E-02  0.241372607990E-02  0.244269079286E-02  0.247200308237E-02
  0.250166711936E-02  0.253168712479E-02  0.256206737029E-02  0.259281217873E-02
  0.262392592488E-02  0.265541303598E-02  0.268727799241E-02  0.271952532832E-02
  0.275215963226E-02  0.278518554784E-02  0.281860777442E-02  0.285243106771E-02
  0.288666024052E-02  0.292130016341E-02  0.295635576537E-02  0.299183203455E-02
  0.302773401897E-02  0.306406682720E-02  0.310083562912E-02  0.313804565667E-02
  0.317570220455E-02  0.321381063101E-02  0.325237635858E-02  0.329140487488E-02
  0.333090173338E-02  0.337087255418E-02  0.341132302483E-02  0.345225890113E-02
  0.349368600794E-02  0.353561024004E-02  0.357803756292E-02  0.362097401367E-02
  0.366442570184E-02  0.370839881026E-02  0.375289959598E-02  0.379793439114E-02
  0.384350960383E-02  0.388963171907E-02  0.393630729970E-02  0.398354298730E-02
  0.403134550315E-02  0.407972164919E-02  0.412867830898E-02  0.417822244868E-02
  0.422836111807E-02  0.427910145148E-02  0.433045066890E-02  0.438241607693E-02
  0.443500506985E-02  0.448822513069E-02  0.454208383226E-02  0.459658883825E-02
  0.465174790430E-02  0.470756887916E-02  0.476405970571E-02  0.482122842217E-02
  0.487908316324E-02  0.493763216120E-02  0.499688374713E-02  0.505684635210E-02
  0.511752850833E-02  0.517893885042E-02  0.524108611663E-02  0.530397915003E-02
  0.536762689983E-02  0.543203842263E-02  0.549722288370E-02  0.556318955830E-02
  0.562994783300E-02  0.569750720700E-02  0.576587729348E-02  0.583506782101E-02
  0.590508863486E-02  0.597594969848E-02  0.604766109486E-02  0.612023302800E-02
  0.619367582433E-02  0.626799993422E-02  0.634321593343E-02  0.641933452464E-02
  0.649636653893E-02  0.657432293740E-02  0.665321481265E-02  0.673305339040E-02
  0.681385003108E-02  0.689561623146E-02  0.697836362623E-02  0.706210398975E-02
  0.714684923763E-02  0.723261142848E-02  0.731940276562E-02  0.740723559881E-02
  0.749612242599E-02  0.758607589510E-02  0.767710880585E-02  0.776923411152E-02
  0.786246492085E-02  0.795681449990E-02  0.805229627390E-02  0.814892382919E-02
  0.824671091514E-02  0.834567144612E-02  0.844581950348E-02  0.854716933752E-02
  0.864973536957E-02  0.875353219400E-02  0.885857458033E-02  0.896487747529E-02
  0.907245600500E-02  0.918132547706E-02  0.929150138278E-02  0.940299939938E-02
  0.951583539217E-02  0.963002541687E-02  0.974558572188E-02  0.986253275054E-02
  0.998088314355E-02  0.101006537413E-01  0.102218615862E-01  0.103445239252E-01
  0.104686582123E-01  0.105942821108E-01  0.107214134962E-01  0.108500704581E-01
  0.109802713036E-01  0.111120345593E-01  0.112453789740E-01  0.113803235217E-01
  0.115168874039E-01  0.116550900528E-01  0.117949511334E-01  0.119364905470E-01
  0.120797284336E-01  0.122246851748E-01  0.123713813969E-01  0.125198379736E-01
  0.126700760293E-01  0.128221169417E-01  0.129759823450E-01  0.131316941331E-01
  0.132892744627E-01  0.134487457563E-01  0.136101307053E-01  0.137734522738E-01
  0.139387337011E-01  0.141059985055E-01  0.142752704876E-01  0.144465737334E-01
  0.146199326182E-01  0.147953718096E-01  0.149729162714E-01  0.151525912666E-01
  0.153344223618E-01  0.155184354302E-01  0.157046566553E-01  0.158931125352E-01
  0.160838298856E-01  0.162768358442E-01  0.164721578744E-01  0.166698237689E-01
  0.168698616541E-01  0.170722999939E-01  0.172771675939E-01  0.174844936050E-01
  0.176943075282E-01  0.179066392186E-01  0.181215188892E-01  0.183389771159E-01
  0.185590448413E-01  0.187817533794E-01  0.190071344199E-01  0.192352200329E-01
  0.194660426733E-01  0.196996351854E-01  0.199360308076E-01  0.201752631773E-01
  0.204173663355E-01  0.206623747315E-01  0.209103232283E-01  0.211612471070E-01
  0.214151820723E-01  0.216721642572E-01  0.219322302282E-01  0.221954169910E-01
  0.224617619949E-01  0.227313031388E-01  0.230040787765E-01  0.232801277218E-01
  0.235594892545E-01  0.238422031255E-01  0.241283095630E-01  0.244178492778E-01
  0.247108634691E-01  0.250073938307E-01  0.253074825567E-01  0.256111723474E-01
  0.259185064156E-01  0.262295284925E-01  0.265442828345E-01  0.268628142285E-01
  0.271851679992E-01  0.275113900152E-01  0.278415266954E-01  0.281756250157E-01
  0.285137325159E-01  0.288558973061E-01  0.292021680738E-01  0.295525940907E-01
  0.299072252198E-01  0.302661119224E-01  0.306293052655E-01  0.309968569286E-01
  0.313688192118E-01  0.317452450423E-01  0.321261879828E-01  0.325117022386E-01
  0.329018426655E-01  0.332966647775E-01  0.336962247548E-01  0.341005794519E-01
  0.345097864053E-01  0.349239038422E-01  0.353429906883E-01  0.357671065765E-01
  0.361963118554E-01  0.366306675977E-01  0.370702356089E-01  0.375150784362E-01
  0.379652593774E-01  0.384208424900E-01  0.388818925998E-01  0.393484753110E-01
  0.398206570148E-01  0.402985048989E-01  0.407820869577E-01  0.412714720012E-01
  0.417667296652E-01  0.422679304212E-01  0.427751455863E-01  0.432884473333E-01
  0.438079087013E-01  0.443336036057E-01  0.448656068490E-01  0.454039941312E-01
  0.459488420608E-01  0.465002281655E-01  0.470582309035E-01  0.476229296743E-01
  0.481944048304E-01  0.487727376884E-01  0.493580105406E-01  0.499503066671E-01
  0.505497103471E-01  0.511563068713E-01  0.517701825537E-01  0.523914247444E-01
  0.530201218413E-01  0.536563633034E-01  0.543002396631E-01  0.549518425390E-01
  0.556112646495E-01  0.562785998253E-01  0.569539430232E-01  0.576373903395E-01
  0.583290390235E-01  0.590289874918E-01  0.597373353417E-01  0.604541833658E-01
  0.611796335662E-01  0.619137891690E-01  0.626567546390E-01  0.634086356947E-01
  0.641695393230E-01  0.649395737949E-01  0.657188486804E-01  0.665074748646E-01
  0.673055645630E-01  0.681132313377E-01  0.689305901138E-01  0.697577571952E-01
  0.705948502815E-01  0.714419884849E-01  0.722992923467E-01  0.731668838549E-01
  0.740448864611E-01  0.749334250986E-01  0.758326261998E-01  0.767426177142E-01
  0.776635291268E-01  0.785954914763E-01  0.795386373740E-01  0.804931010225E-01
  0.814590182348E-01  0.824365264536E-01  0.834257647711E-01  0.844268739483E-01
  0.854399964357E-01  0.864652763929E-01  0.875028597096E-01  0.885528940261E-01
  0.896155287545E-01  0.906909150995E-01  0.917792060807E-01  0.928805565537E-01
  0.939951232323E-01  0.951230647111E-01  0.962645414876E-01  0.974197159855E-01
  0.985887525773E-01  0.997718176082E-01  0.100969079420E+00  0.102180708373E+00
  0.103406876873E+00  0.104647759396E+00  0.105903532508E+00  0.107174374898E+00
  0.108460467397E+00  0.109761993006E+00  0.111079136922E+00  0.112412086565E+00
  0.113761031604E+00  0.115126163983E+00  0.116507677951E+00  0.117905770086E+00
  0.119320639327E+00  0.120752486999E+00  0.122201516843E+00  0.123667935045E+00
  0.125151950266E+00  0.126653773669E+00  0.128173618953E+00  0.129711702381E+00
  0.131268242809E+00  0.132843461723E+00  0.134437583264E+00  0.136050834263E+00
  0.137683444274E+00  0.139335645605E+00  0.141007673352E+00  0.142699765433E+00
  0.144412162618E+00  0.146145108569E+00  0.147898849872E+00  0.149673636071E+00
  0.151469719703E+00  0.153287356340E+00  0.155126804616E+00  0.156988326271E+00
  0.158872186187E+00  0.160778652421E+00  0.162707996250E+00  0.164660492205E+00
  0.166636418111E+00  0.168636055129E+00  0.170659687790E+00  0.172707604044E+00
  0.174780095292E+00  0.176877456436E+00  0.178999985913E+00  0.181147985744E+00
  0.183321761573E+00  0.185521622712E+00  0.187747882184E+00  0.190000856770E+00
  0.192280867052E+00  0.194588237456E+00  0.196923296306E+00  0.199286375861E+00
  0.201677812372E+00  0.204097946120E+00  0.206547121474E+00  0.209025686931E+00
  0.211533995174E+00  0.214072403117E+00  0.216641271954E+00  0.219240967217E+00
  0.221871858824E+00  0.224534321130E+00  0.227228732983E+00  0.229955477779E+00
  0.232714943513E+00  0.235507522835E+00  0.238333613109E+00  0.241193616466E+00
  0.244087939864E+00  0.247016995142E+00  0.249981199084E+00  0.252980973473E+00
  0.256016745154E+00  0.259088946096E+00  0.262198013449E+00  0.265344389611E+00
  0.268528522286E+00  0.271750864554E+00  0.275011874928E+00  0.278312017427E+00
  0.281651761637E+00  0.285031582776E+00  0.288451961769E+00  0.291913385311E+00
  0.295416345934E+00  0.298961342086E+00  0.302548878191E+00  0.306179464729E+00
  0.309853618306E+00  0.313571861725E+00  0.317334724066E+00  0.321142740755E+00
  0.324996453644E+00  0.328896411088E+00  0.332843168021E+00  0.336837286037E+00
  0.340879333469E+00  0.344969885471E+00  0.349109524097E+00  0.353298838386E+00
  0.357538424446E+00  0.361828885540E+00  0.366170832166E+00  0.370564882152E+00
  0.375011660738E+00  0.379511800667E+00  0.384065942275E+00  0.388674733582E+00
  0.393338830385E+00  0.398058896350E+00  0.402835603106E+00  0.407669630343E+00
  0.412561665908E+00  0.417512405898E+00  0.422522554769E+00  0.427592825426E+00
  0.432723939332E+00  0.437916626604E+00  0.443171626123E+00  0.448489685636E+00
  0.453871561864E+00  0.459318020606E+00  0.464829836854E+00  0.470407794896E+00
  0.476052688434E+00  0.481765320696E+00  0.487546504544E+00  0.493397062599E+00
  0.499317827350E+00  0.505309641278E+00  0.511373356973E+00  0.517509837257E+00
  0.523719955304E+00  0.530004594768E+00  0.536364649905E+00  0.542801025704E+00
  0.549314638012E+00  0.555906413668E+00  0.562577290632E+00  0.569328218120E+00
  0.576160156737E+00  0.583074078618E+00  0.590070967562E+00  0.597151819172E+00
  0.604317641003E+00  0.611569452695E+00  0.618908286127E+00  0.626335185560E+00
  0.633851207787E+00  0.641457422281E+00  0.649154911348E+00  0.656944770284E+00
  0.664828107528E+00  0.672806044818E+00  0.680879717356E+00  0.689050273964E+00
  0.697318877251E+00  0.705686703779E+00  0.714154944224E+00  0.722724803555E+00
  0.731397501197E+00  0.740174271212E+00  0.749056362466E+00  0.758045038816E+00
  0.767141579281E+00  0.776347278233E+00  0.785663445572E+00  0.795091406919E+00
  0.804632503802E+00  0.814288093847E+00  0.824059550973E+00  0.833948265585E+00
  0.843955644772E+00  0.854083112509E+00  0.864332109859E+00  0.874704095178E+00
  0.885200544320E+00  0.895822950852E+00  0.906572826262E+00  0.917451700177E+00
  0.928461120579E+00  0.939602654026E+00  0.950877885874E+00  0.962288420505E+00
  0.973835881551E+00  0.985521912130E+00  0.997348175075E+00  0.100931635318E+01
  0.102142814941E+01  0.103368528721E+01  0.104608951065E+01  0.105864258478E+01
  0.107134629580E+01  0.108420245135E+01  0.109721288076E+01  0.111037943533E+01
  0.112370398856E+01  0.113718843642E+01  0.115083469766E+01  0.116464471403E+01
  0.117862045060E+01  0.119276389600E+01  0.120707706276E+01  0.122156198751E+01
  0.123622073136E+01  0.125105538014E+01  0.126606804470E+01  0.128126086123E+01
  0.129663599157E+01  0.131219562347E+01  0.132794197095E+01  0.134387727460E+01
  0.136000380190E+01  0.137632384752E+01  0.139283973369E+01  0.140955381049E+01
  0.142646845622E+01  0.144358607769E+01  0.146090911063E+01  0.147844001995E+01
  0.149618130019E+01  0.151413547580E+01  0.153230510151E+01  0.155069276272E+01
  0.156930107588E+01  0.158813268879E+01  0.160719028105E+01  0.162647656442E+01
  0.164599428320E+01  0.166574621460E+01  0.168573516917E+01  0.170596399120E+01
  0.172643555910E+01  0.174715278580E+01  0.176811861923E+01  0.178933604267E+01
  0.181080807518E+01  0.183253777208E+01  0.185452822534E+01  0.187678256405E+01
  0.189930395482E+01  0.192209560228E+01  0.194516074950E+01  0.196850267850E+01
  0.199212471064E+01  0.201603020717E+01  0.204022256965E+01  0.206470524049E+01
  0.208948170337E+01  0.211455548381E+01  0.213993014962E+01  0.216560931142E+01
  0.219159662315E+01  0.221789578263E+01  0.224451053202E+01  0.227144465841E+01
  0.229870199431E+01  0.232628641824E+01  0.235420185526E+01  0.238245227752E+01
  0.241104170485E+01  0.243997420531E+01  0.246925389577E+01  0.249888494252E+01
  0.252887156183E+01  0.255921802057E+01  0.258992863682E+01  0.262100778046E+01
  0.265245987383E+01  0.268428939231E+01  0.271650086502E+01  0.274909887540E+01
  0.278208806191E+01  0.281547311865E+01  0.284925879607E+01  0.288344990163E+01
  0.291805130045E+01  0.295306791605E+01  0.298850473104E+01  0.302436678782E+01
  0.306065918927E+01  0.309738709954E+01  0.313455574474E+01  0.317217041367E+01
  0.321023645864E+01  0.324875929614E+01  0.328774440769E+01  0.332719734059E+01
  0.336712370867E+01  0.340752919318E+01  0.344841954350E+01  0.348980057802E+01
  0.353167818495E+01  0.357405832317E+01  0.361694702305E+01  0.366035038733E+01
  0.370427459198E+01  0.374872588708E+01  0.379371059773E+01  0.383923512490E+01
  0.388530594640E+01  0.393192961775E+01  0.397911277317E+01  0.402686212644E+01
  0.407518447196E+01  0.412408668563E+01  0.417357572585E+01  0.422365863456E+01
  0.427434253818E+01  0.432563464864E+01  0.437754226442E+01  0.443007277159E+01
  0.448323364485E+01  0.453703244859E+01  0.459147683797E+01  0.464657456003E+01
  0.470233345475E+01  0.475876145621E+01  0.481586659368E+01  0.487365699280E+01
  0.493214087672E+01  0.499132656724E+01  0.505122248605E+01  0.511183715588E+01
  0.517317920175E+01  0.523525735217E+01  0.529808044040E+01  0.536165740568E+01
  0.542599729455E+01  0.549110926208E+01  0.555700257323E+01  0.562368660411E+01
  0.569117084336E+01  0.575946489348E+01  0.582857847220E+01  0.589852141387E+01
  0.596930367083E+01  0.604093531488E+01  0.611342653866E+01  0.618678765712E+01
  0.626102910901E+01  0.633616145832E+01  0.641219539582E+01  0.648914174057E+01
  0.656701144145E+01  0.664581557875E+01  0.672556536570E+01  0.680627215008E+01
  0.688794741589E+01  0.697060278488E+01  0.705425001829E+01  0.713890101851E+01
  0.722456783074E+01  0.731126264471E+01  0.739899779644E+01  0.748778577000E+01
  0.757763919924E+01  0.766857086963E+01  0.776059372007E+01  0.785372084471E+01
  0.794796549484E+01  0.804334108078E+01  0.813986117375E+01  0.823753950784E+01
  0.833638998193E+01  0.843642666171E+01  0.853766378165E+01  0.864011574703E+01
  0.874379713600E+01  0.884872270163E+01  0.895490737405E+01  0.906236626254E+01
  0.917111465769E+01  0.928116803358E+01  0.939254204998E+01  0.950525255458E+01
  0.961931558524E+01  0.973474737226E+01  0.985156434073E+01  0.996978311282E+01
  0.100894205102E+02  0.102104935563E+02  0.103330194790E+02  0.104570157127E+02
  0.105824999013E+02  0.107094899001E+02  0.108380037789E+02  0.109680598242E+02
  0.110996765421E+02  0.112328726606E+02  0.113676671326E+02  0.115040791381E+02
  0.116421280878E+02  0.117818336249E+02  0.119232156284E+02  0.120662942159E+02
  0.122110897465E+02  0.123576228234E+02  0.125059142973E+02  0.126559852689E+02
  0.128078570921E+02  0.129615513772E+02  0.131170899938E+02  0.132744950737E+02
  0.134337890146E+02  0.135949944827E+02  0.137581344165E+02  0.139232320295E+02
  0.140903108139E+02  0.142593945436E+02  0.144305072782E+02  0.146036733655E+02
  0.147789174459E+02  0.149562644552E+02  0.151357396287E+02  0.153173685043E+02
  0.155011769263E+02  0.156871910494E+02  0.158754373420E+02  0.160659425901E+02
  0.162587339012E+02  0.164538387080E+02  0.166512847725E+02  0.168511001898E+02
  0.170533133921E+02  0.172579531528E+02  0.174650485906E+02  0.176746291737E+02
  0.178867247238E+02  0.181013654205E+02  0.183185818055E+02  0.185384047872E+02
  0.187608656446E+02  0.189859960323E+02  0.192138279847E+02  0.194443939205E+02
  0.196777266476E+02  0.199138593674E+02  0.201528256798E+02  0.203946595879E+02
  0.206393955030E+02  0.208870682490E+02  0.211377130680E+02  0.213913656248E+02
  0.216480620123E+02  0.219078387565E+02  0.221707328216E+02  0.224367816154E+02
  0.227060229948E+02  0.229784952707E+02  0.232542372140E+02  0.235332880605E+02
  0.238156875173E+02  0.241014757675E+02  0.243906934767E+02  0.246833817984E+02
  0.249795823800E+02  0.252793373686E+02  0.255826894170E+02  0.258896816900E+02
  0.262003578703E+02  0.265147621647E+02  0.268329393107E+02  0.271549345824E+02
  0.274807937974E+02  0.278105633230E+02  0.281442900828E+02  0.284820215638E+02
  0.288238058226E+02  0.291696914925E+02  0.295197277904E+02  0.298739645239E+02
  0.302324520982E+02  0.305952415233E+02  0.309623844216E+02  0.313339330347E+02
  0.317099402311E+02  0.320904595139E+02  0.324755450280E+02  0.328652515684E+02
  0.332596345872E+02  0.336587502022E+02  0.340626552047E+02  0.344714070671E+02
  0.348850639519E+02  0.353036847193E+02  0.357273289360E+02  0.361560568832E+02
  0.365899295658E+02  0.370290087206E+02  0.374733568252E+02  0.379230371071E+02
  0.383781135524E+02  0.388386509151E+02  0.393047147260E+02  0.397763713028E+02
  0.402536877584E+02  0.407367320115E+02  0.412255727956E+02  0.417202796692E+02
  0.422209230252E+02  0.427275741015E+02  0.432403049907E+02  0.437591886506E+02
  0.442842989144E+02
   </PP_R>
   <PP_RAB type="real"  size="1157" columns="4">
  0.542207766603E-06  0.548714259803E-06  0.555298830920E-06  0.561962416891E-06
  0.568705965894E-06  0.575530437485E-06  0.582436802735E-06  0.589426044367E-06
  0.596499156900E-06  0.603657146783E-06  0.610901032544E-06  0.618231844934E-06
  0.625650627074E-06  0.633158434599E-06  0.640756335814E-06  0.648445411843E-06
  0.656226756786E-06  0.664101477867E-06  0.672070695601E-06  0.680135543949E-06
  0.688297170476E-06  0.696556736522E-06  0.704915417360E-06  0.713374402368E-06
  0.721934895197E-06  0.730598113939E-06  0.739365291306E-06  0.748237674802E-06
  0.757216526900E-06  0.766303125222E-06  0.775498762725E-06  0.784804747878E-06
  0.794222404852E-06  0.803753073711E-06  0.813398110595E-06  0.823158887922E-06
  0.833036794577E-06  0.843033236112E-06  0.853149634946E-06  0.863387430565E-06
  0.873748079732E-06  0.884233056689E-06  0.894843853369E-06  0.905581979609E-06
  0.916448963365E-06  0.927446350925E-06  0.938575707136E-06  0.949838615622E-06
  0.961236679009E-06  0.972771519157E-06  0.984444777387E-06  0.996258114716E-06
  0.100821321209E-05  0.102031177064E-05  0.103255551189E-05  0.104494617803E-05
  0.105748553216E-05  0.107017535855E-05  0.108301746285E-05  0.109601367241E-05
  0.110916583648E-05  0.112247582651E-05  0.113594553643E-05  0.114957688287E-05
  0.116337180546E-05  0.117733226713E-05  0.119146025433E-05  0.120575777739E-05
  0.122022687071E-05  0.123486959316E-05  0.124968802828E-05  0.126468428462E-05
  0.127986049604E-05  0.129521882199E-05  0.131076144785E-05  0.132649058523E-05
  0.134240847225E-05  0.135851737392E-05  0.137481958240E-05  0.139131741739E-05
  0.140801322640E-05  0.142490938512E-05  0.144200829774E-05  0.145931239731E-05
  0.147682414608E-05  0.149454603583E-05  0.151248058826E-05  0.153063035532E-05
  0.154899791959E-05  0.156758589462E-05  0.158639692536E-05  0.160543368846E-05
  0.162469889272E-05  0.164419527943E-05  0.166392562279E-05  0.168389273026E-05
  0.170409944302E-05  0.172454863634E-05  0.174524321998E-05  0.176618613862E-05
  0.178738037228E-05  0.180882893675E-05  0.183053488399E-05  0.185250130260E-05
  0.187473131823E-05  0.189722809405E-05  0.191999483117E-05  0.194303476915E-05
  0.196635118638E-05  0.198994740062E-05  0.201382676942E-05  0.203799269066E-05
  0.206244860294E-05  0.208719798618E-05  0.211224436201E-05  0.213759129436E-05
  0.216324238989E-05  0.218920129857E-05  0.221547171415E-05  0.224205737472E-05
  0.226896206322E-05  0.229618960798E-05  0.232374388327E-05  0.235162880987E-05
  0.237984835559E-05  0.240840653586E-05  0.243730741429E-05  0.246655510326E-05
  0.249615376450E-05  0.252610760967E-05  0.255642090099E-05  0.258709795180E-05
  0.261814312722E-05  0.264956084475E-05  0.268135557488E-05  0.271353184178E-05
  0.274609422388E-05  0.277904735457E-05  0.281239592283E-05  0.284614467390E-05
  0.288029840999E-05  0.291486199091E-05  0.294984033480E-05  0.298523841882E-05
  0.302106127984E-05  0.305731401520E-05  0.309400178338E-05  0.313112980478E-05
  0.316870336244E-05  0.320672780279E-05  0.324520853642E-05  0.328415103886E-05
  0.332356085133E-05  0.336344358154E-05  0.340380490452E-05  0.344465056337E-05
  0.348598637013E-05  0.352781820658E-05  0.357015202505E-05  0.361299384936E-05
  0.365634977555E-05  0.370022597285E-05  0.374462868453E-05  0.378956422874E-05
  0.383503899949E-05  0.388105946748E-05  0.392763218109E-05  0.397476376726E-05
  0.402246093247E-05  0.407073046366E-05  0.411957922923E-05  0.416901417998E-05
  0.421904235014E-05  0.426967085834E-05  0.432090690864E-05  0.437275779154E-05
  0.442523088504E-05  0.447833365566E-05  0.453207365953E-05  0.458645854344E-05
  0.464149604596E-05  0.469719399852E-05  0.475356032650E-05  0.481060305042E-05
  0.486833028702E-05  0.492675025046E-05  0.498587125347E-05  0.504570170851E-05
  0.510625012901E-05  0.516752513056E-05  0.522953543213E-05  0.529228985731E-05
  0.535579733560E-05  0.542006690363E-05  0.548510770647E-05  0.555092899895E-05
  0.561754014694E-05  0.568495062870E-05  0.575317003625E-05  0.582220807668E-05
  0.589207457360E-05  0.596277946848E-05  0.603433282211E-05  0.610674481597E-05