--------------------------------------------------------------------------
[[43941,1],4]: A high-performance Open MPI point-to-point messaging module
was unable to find any relevant network interfaces:

Module: OpenFabrics (openib)
  Host: emils

Another transport will be used instead, although this may result in
lower performance.

NOTE: You can disable this warning by setting the MCA parameter
btl_base_warn_component_unused to 0.
--------------------------------------------------------------------------

     Program PWSCF v.7.0 starts on 22Sep2022 at 12:23:58 

     This program is part of the open-source Quantum ESPRESSO suite
     for quantum simulation of materials; please cite
         "P. Giannozzi et al., J. Phys.:Condens. Matter 21 395502 (2009);
         "P. Giannozzi et al., J. Phys.:Condens. Matter 29 465901 (2017);
         "P. Giannozzi et al., J. Chem. Phys. 152 154105 (2020);
          URL http://www.quantum-espresso.org", 
     in publications or presentations arising from this work. More details at
     http://www.quantum-espresso.org/quote

     Parallel version (MPI), running on    24 processors

     MPI processes distributed on     1 nodes
     R & G space division:  proc/nbgrp/npool/nimage =      24
     55331 MiB available memory on the printing compute node when the environment starts

     Waiting for input...
     Reading input from standard input

     Current dimensions of program PWSCF are:
     Max number of different atomic species (ntypx) = 10
     Max number of k-points (npk) =  40000
     Max angular momentum in pseudopotentials (lmaxx) =  4
 BFGS INIT            1     0.80000000000000004           1.0000000000000000E-004     0.50000000000000000           1.0000000000000000E-002     0.50000000000000000     

     gamma-point specific algorithms are used
     Message from routine setup:
     using ibrav=0 with symmetry is DISCOURAGED, use correct ibrav instead

     Subspace diagonalization in iterative solution of the eigenvalue problem:
     a serial algorithm will be used

 GGGGGGGGG0     0.0000000000000000             1.0539549771389620             1.0539549771389620            0.46399005184828723     
 GGGGGGGGG1     551.15201629641058     
 GGGGGGGGG2     551.15201629641058            2204.6080651856423             2204.6080651856423     
 TPIBA    0.41753424120949306           0.17433484258238713     
 GCUTM =    2204.6080651856423     
 AAAA    0.71438855503944720          0.66572287068339109         -0.21555057846759684     
 AAAA    0.71438855503944720         -0.66572287068339109         -0.21555057846759684     
 AAAA    -0.0000000000000000          -0.0000000000000000          -1.5334368072363300     
   46.953254042564957               47
   46.953254042564957               47
   71.999847968387115               72
 NX =           93
 NY =           93
 NZ =          143
 GCUTM =    2204.6080651856423     
 AAAA    0.71438855503944720          0.66572287068339109         -0.21555057846759684     
 AAAA    0.71438855503944720         -0.66572287068339109         -0.21555057846759684     
 AAAA    -0.0000000000000000          -0.0000000000000000          -1.5334368072363300     
   46.953254042564957               47
   46.953254042564957               47
   71.999847968387115               72
 NX =           93
 NY =           93
 NZ =          143

     Parallelization info
     --------------------
     sticks:   dense  smooth     PW     G-vecs:    dense   smooth      PW
     Min         285     285     70                26340    26340    3284
     Max         288     288     72                26350    26350    3302
     Sum        6873    6873   1725               632285   632285   79089

     Using Slab Decomposition



     bravais-lattice index     =            0
     lattice parameter (alat)  =      15.0483  a.u.
     unit-cell volume          =    4970.3521 (a.u.)^3
     number of atoms/cell      =           86
     number of atomic types    =            4
     number of electrons       =       304.00
     number of Kohn-Sham states=          182
     kinetic-energy cutoff     =      96.0850  Ry
     charge density cutoff     =     384.3400  Ry
     scf convergence threshold =      1.7E-08
     mixing beta               =       0.4000
     number of iterations used =            8  plain     mixing
     Exchange-correlation= PBE
                           (   1   4   3   4   0   0   0)

     celldm(1)=  15.048311  celldm(2)=   0.000000  celldm(3)=   0.000000
     celldm(4)=   0.000000  celldm(5)=   0.000000  celldm(6)=   0.000000

     crystal axes: (cart. coord. in units of alat)
               a(1) = (   0.714389   0.665723  -0.215551 )  
               a(2) = (   0.714389  -0.665723  -0.215551 )  
               a(3) = (  -0.000000  -0.000000  -1.533437 )  

     reciprocal axes: (cart. coord. in units 2 pi/alat)
               b(1) = (  0.699899  0.751063 -0.000000 )  
               b(2) = (  0.699899 -0.751063  0.000000 )  
               b(3) = ( -0.196765  0.000000 -0.652130 )  


     PseudoPot. # 1 for B  read from file:
     /home/briggs/Pseudo/nc-sr-04_pbe_stringent/B.upf
     MD5 check sum: 72f82fc31bc892420d0cab7e25c88ab8
     Pseudo is Norm-conserving + core correction, Zval =  3.0
     Generated using ONCVPSP code by D. R. Hamann
     Using radial grid of 1534 points,  4 beta functions with: 
                l(1) =   0
                l(2) =   0
                l(3) =   1
                l(4) =   1

     PseudoPot. # 2 for H  read from file:
     /home/briggs/Pseudo/nc-sr-04_pbe_stringent/H.upf
     MD5 check sum: e96aa7e3e4a958db16958554ea960e2a
     Pseudo is Norm-conserving, Zval =  1.0
     Generated using ONCVPSP code by D. R. Hamann
     Using radial grid of 1166 points,  3 beta functions with: 
                l(1) =   0
                l(2) =   0
                l(3) =   1

     PseudoPot. # 3 for Na read from file:
     /home/briggs/Pseudo/nc-sr-04_pbe_stringent/Na.upf
     MD5 check sum: ed5af011864af3d1529ce3b51bbccf87
     Pseudo is Norm-conserving, Zval =  9.0
     Generated using ONCVPSP code by D. R. Hamann
     Using radial grid of 1992 points,  4 beta functions with: 
                l(1) =   0
                l(2) =   0
                l(3) =   1
                l(4) =   1

     PseudoPot. # 4 for O  read from file:
     /home/briggs/Pseudo/nc-sr-04_pbe_stringent/O.upf
     MD5 check sum: 9db02a5ece9d56b81b65a73f8163743d
     Pseudo is Norm-conserving + core correction, Zval =  6.0
     Generated using ONCVPSP code by D. R. Hamann
     Using radial grid of  936 points,  5 beta functions with: 
                l(1) =   0
                l(2) =   0
                l(3) =   1
                l(4) =   1
                l(5) =   2

     atomic species   valence    mass     pseudopotential
        B              3.00    10.81100     B ( 1.00)
        H              1.00     1.00800     H ( 1.00)
        Na             9.00    22.99000     Na( 1.00)
        O              6.00    15.99900     O ( 1.00)

      4 Sym. Ops., with inversion, found ( 2 have fractional translation)


                                    s                        frac. trans.

      isym =  1     identity                                     

 cryst.   s( 1) = (     1          0          0      )
                  (     0          1          0      )
                  (     0          0          1      )

 cart.    s( 1) = (  1.0000000  0.0000000  0.0000000 )
                  (  0.0000000  1.0000000  0.0000000 )
                  (  0.0000000  0.0000000  1.0000000 )


      isym =  2     180 deg rotation - cart. axis [0,1,0]        

 cryst.   s( 2) = (     0         -1          0      )    f =(  0.0000000 )
                  (    -1          0          0      )       (  0.0000000 )
                  (     0          0         -1      )       ( -0.5000000 )

 cart.    s( 2) = ( -1.0000000  0.0000000  0.0000000 )    f =(  0.0000000 )
                  (  0.0000000  1.0000000  0.0000000 )       ( -0.0000000 )
                  ( -0.0000000  0.0000000 -1.0000000 )       (  0.7667184 )


      isym =  3     inversion                                    

 cryst.   s( 3) = (    -1          0          0      )
                  (     0         -1          0      )
                  (     0          0         -1      )

 cart.    s( 3) = ( -1.0000000  0.0000000  0.0000000 )
                  (  0.0000000 -1.0000000  0.0000000 )
                  ( -0.0000000  0.0000000 -1.0000000 )


      isym =  4     inv. 180 deg rotation - cart. axis [0,1,0]   

 cryst.   s( 4) = (     0          1          0      )    f =(  0.0000000 )
                  (     1          0          0      )       (  0.0000000 )
                  (     0          0          1      )       ( -0.5000000 )

 cart.    s( 4) = (  1.0000000  0.0000000  0.0000000 )    f =(  0.0000000 )
                  (  0.0000000 -1.0000000  0.0000000 )       (  0.0000000 )
                  (  0.0000000  0.0000000  1.0000000 )       (  0.7667184 )


   Cartesian axes

     site n.     atom                  positions (alat units)
         1           B   tau(   1) = (   0.8365776  -0.2063874  -1.4553535  )
         2           B   tau(   2) = (   0.8365776   0.2063874  -0.6886351  )
         3           B   tau(   3) = (   0.5921995  -0.2063874  -1.2759028  )
         4           B   tau(   4) = (   0.5921995   0.2063874  -0.5091844  )
         5           B   tau(   5) = (   0.8550802  -0.0580111  -1.1892726  )
         6           B   tau(   6) = (   0.8550802   0.0580111  -0.4225542  )
         7           B   tau(   7) = (   0.5736969  -0.0580111  -1.5419838  )
         8           B   tau(   8) = (   0.5736969   0.0580111  -0.7752653  )
         9           H   tau(   9) = (   0.3881987  -0.3166178  -1.2095506  )
        10           H   tau(  10) = (   0.3881987   0.3166178  -0.4428322  )
        11           H   tau(  11) = (   1.0405784  -0.3166178  -1.5217058  )
        12           H   tau(  12) = (   1.0405784   0.3166178  -0.7549874  )
        13           H   tau(  13) = (   0.8839844  -0.0443371  -1.7533893  )
        14           H   tau(  14) = (   0.8839844   0.0443371  -0.9866709  )
        15           H   tau(  15) = (   0.5447927  -0.0443371  -0.9778671  )
        16           H   tau(  16) = (   0.5447927   0.0443371  -0.2111487  )
        17           H   tau(  17) = (   1.1557378  -0.1560454  -1.8188236  )
        18           H   tau(  18) = (   1.1557378   0.1560454  -1.0521052  )
        19           H   tau(  19) = (   0.2730393  -0.1560454  -0.9124328  )
        20           H   tau(  20) = (   0.2730393   0.1560454  -0.1457144  )
        21           H   tau(  21) = (   0.5232182  -0.3970371  -0.9336349  )
        22           H   tau(  22) = (   0.5232182   0.3970371  -0.1669165  )
        23           H   tau(  23) = (   0.9055589  -0.3970371  -1.7976214  )
        24           H   tau(  24) = (   0.9055589   0.3970371  -1.0309030  )
        25           H   tau(  25) = (   1.1570237  -0.0243655  -1.4146910  )
        26           H   tau(  26) = (   1.1570237   0.0243655  -0.6479726  )
        27           H   tau(  27) = (   0.2717534  -0.0243655  -1.3165654  )
        28           H   tau(  28) = (   0.2717534   0.0243655  -0.5498470  )
        29           H   tau(  29) = (   0.1863125   0.1033202  -1.2808182  )
        30           H   tau(  30) = (   0.1863125  -0.1033202  -0.5140998  )
        31           H   tau(  31) = (   1.2424646   0.1033202  -1.4504381  )
        32           H   tau(  32) = (   1.2424646  -0.1033202  -0.6837197  )
        33           H   tau(  33) = (   0.5856557  -0.4119493  -1.5453007  )
        34           H   tau(  34) = (   0.5856557   0.4119493  -0.7785823  )
        35           H   tau(  35) = (   0.8431214  -0.4119493  -1.1859557  )
        36           H   tau(  36) = (   0.8431214   0.4119493  -0.4192372  )
        37           H   tau(  37) = (   1.1617387   0.1817423  -1.8299882  )
        38           H   tau(  38) = (   1.1617387  -0.1817423  -1.0632698  )
        39           H   tau(  39) = (   0.2670384   0.1817423  -0.9012682  )
        40           H   tau(  40) = (   0.2670384  -0.1817423  -0.1345498  )
        41           H   tau(  41) = (   0.5740826   0.1730879  -1.1875849  )
        42           H   tau(  42) = (   0.5740826  -0.1730879  -0.4208665  )
        43           H   tau(  43) = (   0.8546945   0.1730879  -1.5436715  )
        44           H   tau(  44) = (   0.8546945  -0.1730879  -0.7769531  )
        45           H   tau(  45) = (   0.8772691   0.3103600  -1.6358953  )
        46           H   tau(  46) = (   0.8772691  -0.3103600  -0.8691769  )
        47           H   tau(  47) = (   0.5515080   0.3103600  -1.0953611  )
        48           H   tau(  48) = (   0.5515080  -0.3103600  -0.3286427  )
        49           Na  tau(  49) = (   0.0000000   0.0000000  -0.0000000  )
        50           Na  tau(  50) = (   0.0000000   0.0000000  -0.7667184  )
        51           Na  tau(  51) = (   0.7143886   0.4632765  -1.3656282  )
        52           Na  tau(  52) = (   0.7143886  -0.4632765  -0.5989098  )
        53           O   tau(  53) = (   0.7143886  -0.3107728  -1.3656282  )
        54           O   tau(  54) = (   0.7143886   0.3107728  -0.5989098  )
        55           O   tau(  55) = (   0.9365062  -0.1074876  -1.3318390  )
        56           O   tau(  56) = (   0.9365062   0.1074876  -0.5651206  )
        57           O   tau(  57) = (   0.4922709  -0.1074876  -1.3994173  )
        58           O   tau(  58) = (   0.4922709   0.1074876  -0.6326989  )
        59           O   tau(  59) = (   0.7424497  -0.0855720  -1.5666180  )
        60           O   tau(  60) = (   0.7424497   0.0855720  -0.7998996  )
        61           O   tau(  61) = (   0.6863274  -0.0855720  -1.1646384  )
        62           O   tau(  62) = (   0.6863274   0.0855720  -0.3979200  )
        63           O   tau(  63) = (   0.9449932  -0.3060461  -1.5613791  )
        64           O   tau(  64) = (   0.9449932   0.3060461  -0.7946607  )
        65           O   tau(  65) = (   0.4837839  -0.3060461  -1.1698773  )
        66           O   tau(  66) = (   0.4837839   0.3060461  -0.4031589  )
        67           O   tau(  67) = (   0.9482651   0.0202646  -1.0661768  )
        68           O   tau(  68) = (   0.9482651  -0.0202646  -0.2994584  )
        69           O   tau(  69) = (   0.4805120   0.0202646  -1.6650795  )
        70           O   tau(  70) = (   0.4805120  -0.0202646  -0.8983611  )
        71           O   tau(  71) = (   0.8909425   0.4607734  -1.1145735  )
        72           O   tau(  72) = (   0.8909425  -0.4607734  -0.3478551  )
        73           O   tau(  73) = (   0.5378346   0.4607734  -1.6166829  )
        74           O   tau(  74) = (   0.5378346  -0.4607734  -0.8499645  )
        75           O   tau(  75) = (   0.1756824   0.0015578  -1.2866888  )
        76           O   tau(  76) = (   0.1756824  -0.0015578  -0.5199704  )
        77           O   tau(  77) = (   1.2530947   0.0015578  -1.4445676  )
        78           O   tau(  78) = (   1.2530947  -0.0015578  -0.6778492  )
        79           O   tau(  79) = (   0.8846845  -0.4452887  -1.0911251  )
        80           O   tau(  80) = (   0.8846845   0.4452887  -0.3244067  )
        81           O   tau(  81) = (   0.5440926  -0.4452887  -1.6401312  )
        82           O   tau(  82) = (   0.5440926   0.4452887  -0.8734128  )
        83           O   tau(  83) = (   0.8822127   0.2749968  -1.5354594  )
        84           O   tau(  84) = (   0.8822127  -0.2749968  -0.7687410  )
        85           O   tau(  85) = (   0.5465644   0.2749968  -1.1957970  )
        86           O   tau(  86) = (   0.5465644  -0.2749968  -0.4290786  )

   Crystallographic axes

     site n.     atom                  positions (cryst. coord.)
         1           B   tau(   1) = (  0.4305100  0.7405300  0.7844700  )
         2           B   tau(   2) = (  0.7405300  0.4305100  0.2844700  )
         3           B   tau(   3) = (  0.2594700  0.5694900  0.7155300  )
         4           B   tau(   4) = (  0.5694900  0.2594700  0.2155300  )
         5           B   tau(   5) = (  0.5549000  0.6420400  0.6073100  )
         6           B   tau(   6) = (  0.6420400  0.5549000  0.1073100  )
         7           B   tau(   7) = (  0.3579600  0.4451000  0.8926900  )
         8           B   tau(   8) = (  0.4451000  0.3579600  0.3926900  )
         9           H   tau(   9) = (  0.0339000  0.5095000  0.7124000  )
        10           H   tau(  10) = (  0.5095000  0.0339000  0.2124000  )
        11           H   tau(  11) = (  0.4905000  0.9661000  0.7876000  )
        12           H   tau(  12) = (  0.9661000  0.4905000  0.2876000  )
        13           H   tau(  13) = (  0.5854000  0.6520000  0.9695000  )
        14           H   tau(  14) = (  0.6520000  0.5854000  0.4695000  )
        15           H   tau(  15) = (  0.3480000  0.4146000  0.5305000  )
        16           H   tau(  16) = (  0.4146000  0.3480000  0.0305000  )
        17           H   tau(  17) = (  0.6917000  0.9261000  0.9587000  )
        18           H   tau(  18) = (  0.9261000  0.6917000  0.4587000  )
        19           H   tau(  19) = (  0.0739000  0.3083000  0.5413000  )
        20           H   tau(  20) = (  0.3083000  0.0739000  0.0413000  )
        21           H   tau(  21) = (  0.0680000  0.6644000  0.5059000  )
        22           H   tau(  22) = (  0.6644000  0.0680000  0.0059000  )
        23           H   tau(  23) = (  0.3356000  0.9320000  0.9941000  )
        24           H   tau(  24) = (  0.9320000  0.3356000  0.4941000  )
        25           H   tau(  25) = (  0.7915000  0.8281000  0.6949000  )
        26           H   tau(  26) = (  0.8281000  0.7915000  0.1949000  )
        27           H   tau(  27) = (  0.1719000  0.2085000  0.8051000  )
        28           H   tau(  28) = (  0.2085000  0.1719000  0.3051000  )
        29           H   tau(  29) = (  0.2080000  0.0528000  0.7986000  )
        30           H   tau(  30) = (  0.0528000  0.2080000  0.2986000  )
        31           H   tau(  31) = (  0.9472000  0.7920000  0.7014000  )
        32           H   tau(  32) = (  0.7920000  0.9472000  0.2014000  )
        33           H   tau(  33) = (  0.1005000  0.7193000  0.8925000  )
        34           H   tau(  34) = (  0.7193000  0.1005000  0.3925000  )
        35           H   tau(  35) = (  0.2807000  0.8995000  0.6075000  )
        36           H   tau(  36) = (  0.8995000  0.2807000  0.1075000  )
        37           H   tau(  37) = (  0.9496000  0.6766000  0.9648000  )
        38           H   tau(  38) = (  0.6766000  0.9496000  0.4648000  )
        39           H   tau(  39) = (  0.3234000  0.0504000  0.5352000  )
        40           H   tau(  40) = (  0.0504000  0.3234000  0.0352000  )
        41           H   tau(  41) = (  0.5318000  0.2718000  0.6615000  )
        42           H   tau(  42) = (  0.2718000  0.5318000  0.1615000  )
        43           H   tau(  43) = (  0.7282000  0.4682000  0.8385000  )
        44           H   tau(  44) = (  0.4682000  0.7282000  0.3385000  )
        45           H   tau(  45) = (  0.8471000  0.3809000  0.8942000  )
        46           H   tau(  46) = (  0.3809000  0.8471000  0.3942000  )
        47           H   tau(  47) = (  0.6191000  0.1529000  0.6058000  )
        48           H   tau(  48) = (  0.1529000  0.6191000  0.1058000  )
        49           Na  tau(  49) = (  0.0000000  0.0000000  0.0000000  )
        50           Na  tau(  50) = (  0.0000000  0.0000000  0.5000000  )
        51           Na  tau(  51) = (  0.8479500  0.1520500  0.7500000  )
        52           Na  tau(  52) = (  0.1520500  0.8479500  0.2500000  )
        53           O   tau(  53) = (  0.2665900  0.7334100  0.7500000  )
        54           O   tau(  54) = (  0.7334100  0.2665900  0.2500000  )
        55           O   tau(  55) = (  0.5747300  0.7361900  0.6842600  )
        56           O   tau(  56) = (  0.7361900  0.5747300  0.1842600  )
        57           O   tau(  57) = (  0.2638100  0.4252700  0.8157400  )
        58           O   tau(  58) = (  0.4252700  0.2638100  0.3157400  )
        59           O   tau(  59) = (  0.4553700  0.5839100  0.8755500  )
        60           O   tau(  60) = (  0.5839100  0.4553700  0.3755500  )
        61           O   tau(  61) = (  0.4160900  0.5446300  0.6244500  )
        62           O   tau(  62) = (  0.5446300  0.4160900  0.1244500  )
        63           O   tau(  63) = (  0.4315400  0.8912600  0.8322800  )
        64           O   tau(  64) = (  0.8912600  0.4315400  0.3322800  )
        65           O   tau(  65) = (  0.1087400  0.5684600  0.6677200  )
        66           O   tau(  66) = (  0.5684600  0.1087400  0.1677200  )
        67           O   tau(  67) = (  0.6789100  0.6484700  0.5087000  )
        68           O   tau(  68) = (  0.6484700  0.6789100  0.0087000  )
        69           O   tau(  69) = (  0.3515300  0.3210900  0.9913000  )
        70           O   tau(  70) = (  0.3210900  0.3515300  0.4913000  )
        71           O   tau(  71) = (  0.9696400  0.2775000  0.5515400  )
        72           O   tau(  72) = (  0.2775000  0.9696400  0.0515400  )
        73           O   tau(  73) = (  0.7225000  0.0303600  0.9484600  )
        74           O   tau(  74) = (  0.0303600  0.7225000  0.4484600  )
        75           O   tau(  75) = (  0.1241300  0.1217900  0.8045200  )
        76           O   tau(  76) = (  0.1217900  0.1241300  0.3045200  )
        77           O   tau(  77) = (  0.8782100  0.8758700  0.6954800  )
        78           O   tau(  78) = (  0.8758700  0.8782100  0.1954800  )
        79           O   tau(  79) = (  0.2847500  0.9536300  0.5374800  )
        80           O   tau(  80) = (  0.9536300  0.2847500  0.0374800  )
        81           O   tau(  81) = (  0.0463700  0.7152500  0.9625200  )
        82           O   tau(  82) = (  0.7152500  0.0463700  0.4625200  )
        83           O   tau(  83) = (  0.8240000  0.4109200  0.8277300  )
        84           O   tau(  84) = (  0.4109200  0.8240000  0.3277300  )
        85           O   tau(  85) = (  0.5890800  0.1760000  0.6722700  )
        86           O   tau(  86) = (  0.1760000  0.5890800  0.1722700  )

     number of k points=     1  Marzari-Vanderbilt smearing, width (Ry)=  0.0147
                       cart. coord. in units 2pi/alat
        k(    1) = (   0.0000000   0.0000000   0.0000000), wk =   2.0000000

                       cryst. coord.
        k(    1) = (   0.0000000   0.0000000  -0.0000000), wk =   2.0000000

     Dense  grid:   316143 G-vectors     FFT dimensions: (  96,  96, 144)

     Dynamical RAM for                 wfc:       4.57 MB

     Dynamical RAM for     wfc (w. buffer):       4.57 MB

     Dynamical RAM for           str. fact:       0.80 MB

     Dynamical RAM for           local pot:       0.00 MB

     Dynamical RAM for          nlocal pot:      18.54 MB

     Dynamical RAM for                qrad:       4.50 MB

     Dynamical RAM for          rho,v,vnew:       1.87 MB

     Dynamical RAM for               rhoin:       0.62 MB

     Dynamical RAM for            rho*nmix:       3.22 MB

     Dynamical RAM for           G-vectors:       0.85 MB

     Dynamical RAM for          h,s,v(r/c):       3.03 MB

     Dynamical RAM for          <psi|beta>:       1.02 MB

     Dynamical RAM for                 psi:       9.14 MB

     Dynamical RAM for                hpsi:       9.14 MB

     Dynamical RAM for      wfcinit/wfcrot:      12.64 MB

     Estimated static dynamical RAM per process >      34.87 MB

     Estimated max dynamical RAM per process >      60.42 MB

     Estimated total dynamical RAM >       1.42 GB
 gcutm =    2204.6080651856423     

     Initial potential from superposition of free atoms

     starting charge     303.9724, renormalised to     304.0000
     Starting wfcs are  228 randomized atomic wfcs

     total cpu time spent up to now is        2.4 secs

     per-process dynamical memory:    47.8 Mb

     Self-consistent Calculation

     iteration #  1     ecut=    96.08 Ry     beta= 0.40
     Davidson diagonalization with overlap

---- Real-time Memory Report at c_bands before calling an iterative solver
            87 MiB given to the printing process from OS
            46 MiB allocation reported by mallinfo(arena+hblkhd)
         54133 MiB available memory on the node where the printing process lives
------------------
     ethr =  1.00E-02,  avg # of iterations =  5.0

     total cpu time spent up to now is        3.4 secs

     total energy              =   -1586.63546017 Ry
     estimated scf accuracy    <      13.82880897 Ry

     iteration #  2     ecut=    96.08 Ry     beta= 0.40
     Davidson diagonalization with overlap

---- Real-time Memory Report at c_bands before calling an iterative solver
            98 MiB given to the printing process from OS
            52 MiB allocation reported by mallinfo(arena+hblkhd)
         54021 MiB available memory on the node where the printing process lives
------------------
     ethr =  4.55E-03,  avg # of iterations =  2.0

     total cpu time spent up to now is        4.2 secs

     total energy              =   -1588.82640001 Ry
     estimated scf accuracy    <       0.72458090 Ry

     iteration #  3     ecut=    96.08 Ry     beta= 0.40
     Davidson diagonalization with overlap

---- Real-time Memory Report at c_bands before calling an iterative solver
           100 MiB given to the printing process from OS
            52 MiB allocation reported by mallinfo(arena+hblkhd)
         54058 MiB available memory on the node where the printing process lives
------------------
     ethr =  2.38E-04,  avg # of iterations = 12.0

     total cpu time spent up to now is        5.5 secs

     total energy              =   -1588.84431456 Ry
     estimated scf accuracy    <       0.19697658 Ry

     iteration #  4     ecut=    96.08 Ry     beta= 0.40
     Davidson diagonalization with overlap

---- Real-time Memory Report at c_bands before calling an iterative solver
           100 MiB given to the printing process from OS
            53 MiB allocation reported by mallinfo(arena+hblkhd)
         54049 MiB available memory on the node where the printing process lives
------------------
     ethr =  6.48E-05,  avg # of iterations =  2.0

     total cpu time spent up to now is        6.2 secs

     total energy              =   -1588.85414626 Ry
     estimated scf accuracy    <       0.01179836 Ry

     iteration #  5     ecut=    96.08 Ry     beta= 0.40
     Davidson diagonalization with overlap

---- Real-time Memory Report at c_bands before calling an iterative solver
           101 MiB given to the printing process from OS
            53 MiB allocation reported by mallinfo(arena+hblkhd)
         54038 MiB available memory on the node where the printing process lives
------------------
     ethr =  3.88E-06,  avg # of iterations = 15.0

     total cpu time spent up to now is        7.7 secs

     total energy              =   -1588.85562556 Ry
     estimated scf accuracy    <       0.00071294 Ry

     iteration #  6     ecut=    96.08 Ry     beta= 0.40
     Davidson diagonalization with overlap

---- Real-time Memory Report at c_bands before calling an iterative solver
           101 MiB given to the printing process from OS
            54 MiB allocation reported by mallinfo(arena+hblkhd)
         54030 MiB available memory on the node where the printing process lives
------------------
     ethr =  2.35E-07,  avg # of iterations =  2.0

     total cpu time spent up to now is        8.4 secs

     total energy              =   -1588.85573324 Ry
     estimated scf accuracy    <       0.00012591 Ry

     iteration #  7     ecut=    96.08 Ry     beta= 0.40
     Davidson diagonalization with overlap

---- Real-time Memory Report at c_bands before calling an iterative solver
           101 MiB given to the printing process from OS
            54 MiB allocation reported by mallinfo(arena+hblkhd)
         54017 MiB available memory on the node where the printing process lives
------------------
     ethr =  4.14E-08,  avg # of iterations =  2.0

     total cpu time spent up to now is        9.2 secs

     total energy              =   -1588.85576000 Ry
     estimated scf accuracy    <       0.00001500 Ry

     iteration #  8     ecut=    96.08 Ry     beta= 0.40
     Davidson diagonalization with overlap

---- Real-time Memory Report at c_bands before calling an iterative solver
           102 MiB given to the printing process from OS
            54 MiB allocation reported by mallinfo(arena+hblkhd)
         54009 MiB available memory on the node where the printing process lives
------------------
     ethr =  4.93E-09,  avg # of iterations =  2.0

     total cpu time spent up to now is       10.0 secs

     total energy              =   -1588.85576370 Ry
     estimated scf accuracy    <       0.00000138 Ry

     iteration #  9     ecut=    96.08 Ry     beta= 0.40
     Davidson diagonalization with overlap

---- Real-time Memory Report at c_bands before calling an iterative solver
           102 MiB given to the printing process from OS
            55 MiB allocation reported by mallinfo(arena+hblkhd)
         54000 MiB available memory on the node where the printing process lives
------------------
     ethr =  4.54E-10,  avg # of iterations =  2.0

     total cpu time spent up to now is       10.8 secs

     total energy              =   -1588.85576384 Ry
     estimated scf accuracy    <       0.00000020 Ry

     iteration # 10     ecut=    96.08 Ry     beta= 0.40
     Davidson diagonalization with overlap

---- Real-time Memory Report at c_bands before calling an iterative solver
           103 MiB given to the printing process from OS
            55 MiB allocation reported by mallinfo(arena+hblkhd)
         53990 MiB available memory on the node where the printing process lives
------------------
     ethr =  6.45E-11,  avg # of iterations =  2.0

     total cpu time spent up to now is       11.5 secs

     total energy              =   -1588.85576389 Ry
     estimated scf accuracy    <       0.00000008 Ry

     iteration # 11     ecut=    96.08 Ry     beta= 0.40
     Davidson diagonalization with overlap

---- Real-time Memory Report at c_bands before calling an iterative solver
           103 MiB given to the printing process from OS
            55 MiB allocation reported by mallinfo(arena+hblkhd)
         53990 MiB available memory on the node where the printing process lives
------------------
     ethr =  2.48E-11,  avg # of iterations =  2.0

     total cpu time spent up to now is       12.3 secs

     End of self-consistent calculation

          k = 0.0000 0.0000 0.0000 ( 39545 PWs)   bands (ev):

   -48.3583 -48.3583 -48.3219 -48.3219 -21.0418 -21.0348 -20.9825 -20.9713
   -20.5660 -20.5511 -20.5508 -20.5431 -20.5058 -20.4625 -20.4419 -20.4393
   -20.4142 -20.2845 -20.2692 -20.2471 -20.2387 -20.2217 -20.1925 -20.1872
   -20.1679 -20.1673 -20.1561 -20.0674 -19.9906 -19.9801 -19.9526 -19.9053
   -19.7699 -19.6536 -19.6070 -19.5444 -19.1239 -19.0054 -18.7383 -18.7357
   -18.0775 -18.0436 -17.5794 -17.4779 -17.2026 -17.2022 -16.7643 -16.7284
   -16.3413 -16.3136  -8.1303  -8.0895  -8.0789  -8.0581  -7.9467  -7.9095
    -7.9092  -7.8859  -7.8501  -7.8474  -7.8355  -7.8332  -7.7586  -7.7577
    -7.7346  -7.6420  -7.6019  -7.5874  -7.5507  -7.4597  -7.3011  -7.1489
    -6.8955  -6.6193  -5.3854  -5.2787  -5.2114  -5.1622  -5.0425  -4.7923
    -4.7783  -4.7748  -4.3789  -4.2750  -4.2724  -4.2680  -3.9306  -3.9231
    -3.9065  -3.8504  -3.8000  -3.7521  -3.7329  -3.6939  -3.5948  -3.5848
    -3.5444  -3.4934  -3.4836  -3.3908  -3.3536  -3.2883  -3.2692  -3.1472
    -3.1220  -3.0786  -2.6971  -2.5636  -2.4918  -2.4220  -2.1158  -2.0751
    -1.9362  -1.8792  -1.8369  -1.8321  -1.6702  -1.6403  -1.5505  -1.5206
    -1.5048  -1.4133  -1.3967  -1.3658  -1.3498  -1.2978  -1.2957  -1.2351
    -1.2302  -1.1710  -1.1464  -1.0970  -1.0524  -0.9419  -0.7360  -0.7360
    -0.6929  -0.6683  -0.5989  -0.4855  -0.4307  -0.4065  -0.3524  -0.2129
    -0.2070  -0.1403   0.1367   0.1682   0.3737   0.3782   0.5529   0.6479
     5.6328   7.0380   7.1593   7.6726   7.9175   8.0555   8.2329   8.4110
     8.4625   8.6445   8.7044   8.9716   9.0349   9.0787   9.2228   9.4831
     9.6227   9.7868   9.8244   9.8948  10.0589  10.0914  10.3211  10.3344
    10.6498  10.6582  10.8133  10.8862  10.9924  11.1002

     occupation numbers 
     1.0000   1.0000   1.0000   1.0000   1.0000   1.0000   1.0000   1.0000
     1.0000   1.0000   1.0000   1.0000   1.0000   1.0000   1.0000   1.0000
     1.0000   1.0000   1.0000   1.0000   1.0000   1.0000   1.0000   1.0000
     1.0000   1.0000   1.0000   1.0000   1.0000   1.0000   1.0000   1.0000
     1.0000   1.0000   1.0000   1.0000   1.0000   1.0000   1.0000   1.0000
     1.0000   1.0000   1.0000   1.0000   1.0000   1.0000   1.0000   1.0000
     1.0000   1.0000   1.0000   1.0000   1.0000   1.0000   1.0000   1.0000
     1.0000   1.0000   1.0000   1.0000   1.0000   1.0000   1.0000   1.0000
     1.0000   1.0000   1.0000   1.0000   1.0000   1.0000   1.0000   1.0000
     1.0000   1.0000   1.0000   1.0000   1.0000   1.0000   1.0000   1.0000
     1.0000   1.0000   1.0000   1.0000   1.0000   1.0000   1.0000   1.0000
     1.0000   1.0000   1.0000   1.0000   1.0000   1.0000   1.0000   1.0000
     1.0000   1.0000   1.0000   1.0000   1.0000   1.0000   1.0000   1.0000
     1.0000   1.0000   1.0000   1.0000   1.0000   1.0000   1.0000   1.0000
     1.0000   1.0000   1.0000   1.0000   1.0000   1.0000   1.0000   1.0000
     1.0000   1.0000   1.0000   1.0000   1.0000   1.0000   1.0000   1.0000
     1.0000   1.0000   1.0000   1.0000   1.0000   1.0000   1.0000   1.0000
     1.0000   1.0000   1.0000   1.0000   1.0000   1.0000   1.0000   1.0000
     1.0000   1.0000   1.0000   1.0000   1.0000   1.0000   1.0000   1.0000
     0.0000   0.0000   0.0000   0.0000   0.0000   0.0000   0.0000   0.0000
     0.0000   0.0000   0.0000   0.0000   0.0000   0.0000   0.0000   0.0000
     0.0000   0.0000   0.0000   0.0000   0.0000   0.0000   0.0000   0.0000
     0.0000   0.0000   0.0000   0.0000   0.0000   0.0000

     the Fermi energy is     3.1848 ev

!    total energy              =   -1588.85576391 Ry
     estimated scf accuracy    <          9.2E-10 Ry
     smearing contrib. (-TS)   =       0.00000000 Ry
     internal energy E=F+TS    =   -1588.85576391 Ry

     The total energy is F=E-TS. E is the sum of the following terms:
     one-electron contribution =   -1062.44630680 Ry
     hartree contribution      =     654.13218151 Ry
     xc contribution           =    -397.11379982 Ry
     ewald contribution        =    -783.42783880 Ry

     convergence has been achieved in  11 iterations

     Forces acting on atoms (cartesian axes, Ry/au):

     atom    1 type  1   force =    -0.01814935    0.00163994    0.00358091
     atom    2 type  1   force =    -0.01814935   -0.00163994    0.00358091
     atom    3 type  1   force =     0.01814935    0.00163994   -0.00358091
     atom    4 type  1   force =     0.01814935   -0.00163994   -0.00358091
     atom    5 type  1   force =    -0.01112569   -0.01592667   -0.02548545
     atom    6 type  1   force =    -0.01112569    0.01592667   -0.02548545
     atom    7 type  1   force =     0.01112569   -0.01592667    0.02548545
     atom    8 type  1   force =     0.01112569    0.01592667    0.02548545
     atom    9 type  2   force =    -0.39899645   -0.04643446   -0.16135689
     atom   10 type  2   force =    -0.39899645    0.04643446   -0.16135689
     atom   11 type  2   force =     0.39899645   -0.04643446    0.16135689
     atom   12 type  2   force =     0.39899645    0.04643446    0.16135689
     atom   13 type  2   force =    -0.24131547   -0.10462350    0.32408965
     atom   14 type  2   force =    -0.24131547    0.10462350    0.32408965
     atom   15 type  2   force =     0.24131547   -0.10462350   -0.32408965
     atom   16 type  2   force =     0.24131547    0.10462350   -0.32408965
     atom   17 type  2   force =    -0.24675869    0.13361103    0.04575990
     atom   18 type  2   force =    -0.24675869   -0.13361103    0.04575990
     atom   19 type  2   force =     0.24675869    0.13361103   -0.04575990
     atom   20 type  2   force =     0.24675869   -0.13361103   -0.04575990
     atom   21 type  2   force =    -0.03629314    0.23209966   -0.29145067
     atom   22 type  2   force =    -0.03629314   -0.23209966   -0.29145067
     atom   23 type  2   force =     0.03629314    0.23209966    0.29145067
     atom   24 type  2   force =     0.03629314   -0.23209966    0.29145067
     atom   25 type  2   force =    -0.41687813   -0.15790792    0.13341100
     atom   26 type  2   force =    -0.41687813    0.15790792    0.13341100
     atom   27 type  2   force =     0.41687813   -0.15790792   -0.13341100
     atom   28 type  2   force =     0.41687813    0.15790792   -0.13341100
     atom   29 type  2   force =     0.01115144    0.51254237    0.04348145
     atom   30 type  2   force =     0.01115144   -0.51254237    0.04348145
     atom   31 type  2   force =    -0.01115144    0.51254237   -0.04348145
     atom   32 type  2   force =    -0.01115144   -0.51254237   -0.04348145
     atom   33 type  2   force =     0.13520044    0.10334325    0.25275719
     atom   34 type  2   force =     0.13520044   -0.10334325    0.25275719
     atom   35 type  2   force =    -0.13520044    0.10334325   -0.25275719
     atom   36 type  2   force =    -0.13520044   -0.10334325   -0.25275719
     atom   37 type  2   force =    -0.29664557   -0.12165460    0.05663731
     atom   38 type  2   force =    -0.29664557    0.12165460    0.05663731
     atom   39 type  2   force =     0.29664557   -0.12165460   -0.05663731
     atom   40 type  2   force =     0.29664557    0.12165460   -0.05663731
     atom   41 type  2   force =     0.09491317   -0.36580205    0.00401762
     atom   42 type  2   force =     0.09491317    0.36580205    0.00401762
     atom   43 type  2   force =    -0.09491317   -0.36580205   -0.00401762
     atom   44 type  2   force =    -0.09491317    0.36580205   -0.00401762
     atom   45 type  2   force =    -0.00794774    0.13906263   -0.32873692
     atom   46 type  2   force =    -0.00794774   -0.13906263   -0.32873692
     atom   47 type  2   force =     0.00794774    0.13906263    0.32873692
     atom   48 type  2   force =     0.00794774   -0.13906263    0.32873692
     atom   49 type  3   force =     0.00000000    0.00000000    0.00000000
     atom   50 type  3   force =     0.00000000    0.00000000    0.00000000
     atom   51 type  3   force =     0.00000000   -0.00388812    0.00000000
     atom   52 type  3   force =    -0.00000000    0.00388812   -0.00000000
     atom   53 type  4   force =     0.00000000   -0.00521878    0.00000000
     atom   54 type  4   force =     0.00000000    0.00521878   -0.00000000
     atom   55 type  4   force =     0.01258431    0.00216956   -0.00260643
     atom   56 type  4   force =     0.01258431   -0.00216956   -0.00260643
     atom   57 type  4   force =    -0.01258431    0.00216956    0.00260643
     atom   58 type  4   force =    -0.01258431   -0.00216956    0.00260643
     atom   59 type  4   force =    -0.00858463    0.01078096   -0.00790683
     atom   60 type  4   force =    -0.00858463   -0.01078096   -0.00790683
     atom   61 type  4   force =     0.00858463    0.01078096    0.00790683
     atom   62 type  4   force =     0.00858463   -0.01078096    0.00790683
     atom   63 type  4   force =    -0.38627394    0.03735115   -0.16542105
     atom   64 type  4   force =    -0.38627394   -0.03735115   -0.16542105
     atom   65 type  4   force =     0.38627394    0.03735115    0.16542105
     atom   66 type  4   force =     0.38627394   -0.03735115    0.16542105
     atom   67 type  4   force =     0.24722982   -0.09203984   -0.30190320
     atom   68 type  4   force =     0.24722982    0.09203984   -0.30190320
     atom   69 type  4   force =    -0.24722982   -0.09203984    0.30190320
     atom   70 type  4   force =    -0.24722982    0.09203984    0.30190320
     atom   71 type  4   force =    -0.27901022    0.09751584   -0.24389457
     atom   72 type  4   force =    -0.27901022   -0.09751584   -0.24389457
     atom   73 type  4   force =     0.27901022    0.09751584    0.24389457
     atom   74 type  4   force =     0.27901022   -0.09751584    0.24389457
     atom   75 type  4   force =    -0.42630983   -0.35273721    0.09077771
     atom   76 type  4   force =    -0.42630983    0.35273721    0.09077771
     atom   77 type  4   force =     0.42630983   -0.35273721   -0.09077771
     atom   78 type  4   force =     0.42630983    0.35273721   -0.09077771
     atom   79 type  4   force =    -0.16148546    0.01820060    0.30963764
     atom   80 type  4   force =    -0.16148546   -0.01820060    0.30963764
     atom   81 type  4   force =     0.16148546    0.01820060   -0.30963764
     atom   82 type  4   force =     0.16148546   -0.01820060   -0.30963764
     atom   83 type  4   force =     0.10073632    0.22326841    0.33126110
     atom   84 type  4   force =     0.10073632   -0.22326841    0.33126110
     atom   85 type  4   force =    -0.10073632    0.22326841   -0.33126110
     atom   86 type  4   force =    -0.10073632   -0.22326841   -0.33126110
     The non-local contrib.  to forces
     atom    1 type  1   force =     0.00383671    0.05786452   -0.03061964
     atom    2 type  1   force =     0.00383671   -0.05786452   -0.03061964
     atom    3 type  1   force =    -0.00383671    0.05786452    0.03061964
     atom    4 type  1   force =    -0.00383671   -0.05786452    0.03061964
     atom    5 type  1   force =     0.01533118    0.02481856    0.02305314
     atom    6 type  1   force =     0.01533118   -0.02481856    0.02305314
     atom    7 type  1   force =    -0.01533118    0.02481856   -0.02305314
     atom    8 type  1   force =    -0.01533118   -0.02481856   -0.02305314
     atom    9 type  2   force =     0.34204072    0.04100564    0.13693847
     atom   10 type  2   force =     0.34204072   -0.04100564    0.13693847
     atom   11 type  2   force =    -0.34204072    0.04100564   -0.13693847
     atom   12 type  2   force =    -0.34204072   -0.04100564   -0.13693847
     atom   13 type  2   force =     0.21831971    0.08573557   -0.27669330
     atom   14 type  2   force =     0.21831971   -0.08573557   -0.27669330
     atom   15 type  2   force =    -0.21831971    0.08573557    0.27669330
     atom   16 type  2   force =    -0.21831971   -0.08573557    0.27669330
     atom   17 type  2   force =     0.28024587   -0.14468722   -0.04243733
     atom   18 type  2   force =     0.28024587    0.14468722   -0.04243733
     atom   19 type  2   force =    -0.28024587   -0.14468722    0.04243733
     atom   20 type  2   force =    -0.28024587    0.14468722    0.04243733
     atom   21 type  2   force =     0.04426470   -0.21039888    0.27478738
     atom   22 type  2   force =     0.04426470    0.21039888    0.27478738
     atom   23 type  2   force =    -0.04426470   -0.21039888   -0.27478738
     atom   24 type  2   force =    -0.04426470    0.21039888   -0.27478738
     atom   25 type  2   force =     0.34780078    0.09598859   -0.10822580
     atom   26 type  2   force =     0.34780078   -0.09598859   -0.10822580
     atom   27 type  2   force =    -0.34780078    0.09598859    0.10822580
     atom   28 type  2   force =    -0.34780078   -0.09598859    0.10822580
     atom   29 type  2   force =    -0.03904120   -0.39114047   -0.02252070
     atom   30 type  2   force =    -0.03904120    0.39114047   -0.02252070
     atom   31 type  2   force =     0.03904120   -0.39114047    0.02252070
     atom   32 type  2   force =     0.03904120    0.39114047    0.02252070
     atom   33 type  2   force =    -0.12668338   -0.09972558   -0.27652364
     atom   34 type  2   force =    -0.12668338    0.09972558   -0.27652364
     atom   35 type  2   force =     0.12668338   -0.09972558    0.27652364
     atom   36 type  2   force =     0.12668338    0.09972558    0.27652364
     atom   37 type  2   force =     0.30204844    0.12167324   -0.07537558
     atom   38 type  2   force =     0.30204844   -0.12167324   -0.07537558
     atom   39 type  2   force =    -0.30204844    0.12167324    0.07537558
     atom   40 type  2   force =    -0.30204844   -0.12167324    0.07537558
     atom   41 type  2   force =    -0.09059618    0.33846961   -0.02284570
     atom   42 type  2   force =    -0.09059618   -0.33846961   -0.02284570
     atom   43 type  2   force =     0.09059618    0.33846961    0.02284570
     atom   44 type  2   force =     0.09059618   -0.33846961    0.02284570
     atom   45 type  2   force =     0.01423818   -0.11836476    0.32242206
     atom   46 type  2   force =     0.01423818    0.11836476    0.32242206
     atom   47 type  2   force =    -0.01423818   -0.11836476   -0.32242206
     atom   48 type  2   force =    -0.01423818    0.11836476   -0.32242206
     atom   49 type  3   force =     0.00000000    0.00000000    0.00000000
     atom   50 type  3   force =     0.00000000    0.00000000    0.00000000
     atom   51 type  3   force =     0.00000000    0.02089659   -0.00000000
     atom   52 type  3   force =     0.00000000   -0.02089659    0.00000000
     atom   53 type  4   force =     0.00000000    1.25706986   -0.00000000
     atom   54 type  4   force =     0.00000000   -1.25706986    0.00000000
     atom   55 type  4   force =    -1.21977146   -0.13772752    0.46179326
     atom   56 type  4   force =    -1.21977146    0.13772752    0.46179326
     atom   57 type  4   force =     1.21977146   -0.13772752   -0.46179326
     atom   58 type  4   force =     1.21977146    0.13772752   -0.46179326
     atom   59 type  4   force =    -0.86985101   -0.34841182    0.79216761
     atom   60 type  4   force =    -0.86985101    0.34841182    0.79216761
     atom   61 type  4   force =     0.86985101   -0.34841182   -0.79216761
     atom   62 type  4   force =     0.86985101    0.34841182   -0.79216761
     atom   63 type  4   force =     0.85204833    0.41331297    1.32687642
     atom   64 type  4   force =     0.85204833   -0.41331297    1.32687642
     atom   65 type  4   force =    -0.85204833    0.41331297   -1.32687642
     atom   66 type  4   force =    -0.85204833   -0.41331297   -1.32687642
     atom   67 type  4   force =    -1.69748054   -0.25670277    0.27445145
     atom   68 type  4   force =    -1.69748054    0.25670277    0.27445145
     atom   69 type  4   force =     1.69748054   -0.25670277   -0.27445145
     atom   70 type  4   force =     1.69748054    0.25670277   -0.27445145
     atom   71 type  4   force =     1.58543852   -0.18301287    1.09321099
     atom   72 type  4   force =     1.58543852    0.18301287    1.09321099
     atom   73 type  4   force =    -1.58543852   -0.18301287   -1.09321099
     atom   74 type  4   force =    -1.58543852    0.18301287   -1.09321099
     atom   75 type  4   force =     1.62116035    1.21895106   -0.41207272
     atom   76 type  4   force =     1.62116035   -1.21895106   -0.41207272
     atom   77 type  4   force =    -1.62116035    1.21895106    0.41207272
     atom   78 type  4   force =    -1.62116035   -1.21895106    0.41207272
     atom   79 type  4   force =     0.89078783   -0.17808849   -1.76306636
     atom   80 type  4   force =     0.89078783    0.17808849   -1.76306636
     atom   81 type  4   force =    -0.89078783   -0.17808849    1.76306636
     atom   82 type  4   force =    -0.89078783    0.17808849    1.76306636
     atom   83 type  4   force =    -0.55235947   -1.03794563   -1.67388721
     atom   84 type  4   force =    -0.55235947    1.03794563   -1.67388721
     atom   85 type  4   force =     0.55235947   -1.03794563    1.67388721
     atom   86 type  4   force =     0.55235947    1.03794563    1.67388721
     The ionic contribution  to forces
     atom    1 type  1   force =     1.67468650   -0.24328632   -1.07367474
     atom    2 type  1   force =     1.67468650    0.24328632   -1.07367474
     atom    3 type  1   force =    -1.67468650   -0.24328632    1.07367474
     atom    4 type  1   force =    -1.67468650    0.24328632    1.07367474
     atom    5 type  1   force =     1.10823637    1.53267733    1.02276578
     atom    6 type  1   force =     1.10823637   -1.53267733    1.02276578
     atom    7 type  1   force =    -1.10823637    1.53267733   -1.02276578
     atom    8 type  1   force =    -1.10823637   -1.53267733   -1.02276578
     atom    9 type  2   force =    -4.59898404   -0.82880391   -1.25541375
     atom   10 type  2   force =    -4.59898404    0.82880391   -1.25541375
     atom   11 type  2   force =     4.59898404   -0.82880391    1.25541375
     atom   12 type  2   force =     4.59898404    0.82880391    1.25541375
     atom   13 type  2   force =    -2.04059121   -1.14748584    3.23524929
     atom   14 type  2   force =    -2.04059121    1.14748584    3.23524929
     atom   15 type  2   force =     2.04059121   -1.14748584   -3.23524929
     atom   16 type  2   force =     2.04059121    1.14748584   -3.23524929
     atom   17 type  2   force =    -3.73108701    1.57611812    0.70062483
     atom   18 type  2   force =    -3.73108701   -1.57611812    0.70062483
     atom   19 type  2   force =     3.73108701    1.57611812   -0.70062483
     atom   20 type  2   force =     3.73108701   -1.57611812   -0.70062483
     atom   21 type  2   force =    -0.81743286    2.91764228   -3.05499752
     atom   22 type  2   force =    -0.81743286   -2.91764228   -3.05499752
     atom   23 type  2   force =     0.81743286    2.91764228    3.05499752
     atom   24 type  2   force =     0.81743286   -2.91764228    3.05499752
     atom   25 type  2   force =    -4.25835045   -1.00350294    1.03101351
     atom   26 type  2   force =    -4.25835045    1.00350294    1.03101351
     atom   27 type  2   force =     4.25835045   -1.00350294   -1.03101351
     atom   28 type  2   force =     4.25835045    1.00350294   -1.03101351
     atom   29 type  2   force =     0.73795799    4.57830847    0.64888394
     atom   30 type  2   force =     0.73795799   -4.57830847    0.64888394
     atom   31 type  2   force =    -0.73795799    4.57830847   -0.64888394
     atom   32 type  2   force =    -0.73795799   -4.57830847   -0.64888394
     atom   33 type  2   force =     1.05739515    0.81084533    3.23753522
     atom   34 type  2   force =     1.05739515   -0.81084533    3.23753522
     atom   35 type  2   force =    -1.05739515    0.81084533   -3.23753522
     atom   36 type  2   force =    -1.05739515   -0.81084533   -3.23753522
     atom   37 type  2   force =    -4.10785779   -1.44237350    1.17124270
     atom   38 type  2   force =    -4.10785779    1.44237350    1.17124270
     atom   39 type  2   force =     4.10785779   -1.44237350   -1.17124270
     atom   40 type  2   force =     4.10785779    1.44237350   -1.17124270
     atom   41 type  2   force =     0.93484150   -4.02511078    0.13421316
     atom   42 type  2   force =     0.93484150    4.02511078    0.13421316
     atom   43 type  2   force =    -0.93484150   -4.02511078   -0.13421316
     atom   44 type  2   force =    -0.93484150    4.02511078   -0.13421316
     atom   45 type  2   force =    -0.00918865    1.16911727   -3.92669687
     atom   46 type  2   force =    -0.00918865   -1.16911727   -3.92669687
     atom   47 type  2   force =     0.00918865    1.16911727    3.92669687
     atom   48 type  2   force =     0.00918865   -1.16911727    3.92669687
     atom   49 type  3   force =     0.00000000    0.00000000    0.00000000
     atom   50 type  3   force =    -0.00000000   -0.00000000   -0.00000000
     atom   51 type  3   force =    -0.00000000   -2.18075110    0.00000000
     atom   52 type  3   force =    -0.00000000    2.18075110    0.00000000
     atom   53 type  4   force =     0.00000000   -9.51952359   -0.00000000
     atom   54 type  4   force =     0.00000000    9.51952359    0.00000000
     atom   55 type  4   force =     8.40725312    2.87649205   -0.80299870
     atom   56 type  4   force =     8.40725312   -2.87649205   -0.80299870
     atom   57 type  4   force =    -8.40725312    2.87649205    0.80299870
     atom   58 type  4   force =    -8.40725312   -2.87649205    0.80299870
     atom   59 type  4   force =     3.16729238    4.21528215   -5.92167949
     atom   60 type  4   force =     3.16729238   -4.21528215   -5.92167949
     atom   61 type  4   force =    -3.16729238    4.21528215    5.92167949
     atom   62 type  4   force =    -3.16729238   -4.21528215    5.92167949
     atom   63 type  4   force =     2.16109417   -3.55715014   -6.50902172
     atom   64 type  4   force =     2.16109417    3.55715014   -6.50902172
     atom   65 type  4   force =    -2.16109417   -3.55715014    6.50902172
     atom   66 type  4   force =    -2.16109417    3.55715014    6.50902172
     atom   67 type  4   force =     6.91191114    2.48270314    1.04507490
     atom   68 type  4   force =     6.91191114   -2.48270314    1.04507490
     atom   69 type  4   force =    -6.91191114    2.48270314   -1.04507490
     atom   70 type  4   force =    -6.91191114   -2.48270314   -1.04507490
     atom   71 type  4   force =    -0.86901173   -1.78307964   -3.23055837
     atom   72 type  4   force =    -0.86901173    1.78307964   -3.23055837
     atom   73 type  4   force =     0.86901173   -1.78307964    3.23055837
     atom   74 type  4   force =     0.86901173    1.78307964    3.23055837
     atom   75 type  4   force =    -1.68107849   -2.01632675    2.94021999
     atom   76 type  4   force =    -1.68107849    2.01632675    2.94021999
     atom   77 type  4   force =     1.68107849   -2.01632675   -2.94021999
     atom   78 type  4   force =     1.68107849    2.01632675   -2.94021999
     atom   79 type  4   force =     0.65774173    1.03243719    3.81969218
     atom   80 type  4   force =     0.65774173   -1.03243719    3.81969218
     atom   81 type  4   force =    -0.65774173    1.03243719   -3.81969218
     atom   82 type  4   force =    -0.65774173   -1.03243719   -3.81969218
     atom   83 type  4   force =     2.23181647    0.51252856    3.97681135
     atom   84 type  4   force =     2.23181647   -0.51252856    3.97681135
     atom   85 type  4   force =    -2.23181647    0.51252856   -3.97681135
     atom   86 type  4   force =    -2.23181647   -0.51252856   -3.97681135
     The local contribution  to forces
     atom    1 type  1   force =    -1.69661101    0.19039411    1.10640617
     atom    2 type  1   force =    -1.69661117   -0.19039433    1.10640581
     atom    3 type  1   force =     1.69661073    0.19039432   -1.10640537
     atom    4 type  1   force =     1.69661124   -0.19039445   -1.10640608
     atom    5 type  1   force =    -1.13417419   -1.57204340   -1.07000447
     atom    6 type  1   force =    -1.13417443    1.57204333   -1.07000450
     atom    7 type  1   force =     1.13417447   -1.57204333    1.07000458
     atom    8 type  1   force =     1.13417439    1.57204353    1.07000477
     atom    9 type  2   force =     3.85794556    0.74136355    0.95711863
     atom   10 type  2   force =     3.85794527   -0.74136349    0.95711846
     atom   11 type  2   force =    -3.85794538    0.74136352   -0.95711849
     atom   12 type  2   force =    -3.85794549   -0.74136350   -0.95711858
     atom   13 type  2   force =     1.58095683    0.95712646   -2.63446569
     atom   14 type  2   force =     1.58095681   -0.95712648   -2.63446573
     atom   15 type  2   force =    -1.58095675    0.95712641    2.63446557
     atom   16 type  2   force =    -1.58095677   -0.95712646    2.63446569
     atom   17 type  2   force =     3.20408221   -1.29781936   -0.61242704
     atom   18 type  2   force =     3.20408218    1.29781936   -0.61242706
     atom   19 type  2   force =    -3.20408212   -1.29781933    0.61242703
     atom   20 type  2   force =    -3.20408224    1.29781939    0.61242706
     atom   21 type  2   force =     0.73687550   -2.47514341    2.48875913
     atom   22 type  2   force =     0.73687551    2.47514342    2.48875916
     atom   23 type  2   force =    -0.73687549   -2.47514346   -2.48875919
     atom   24 type  2   force =    -0.73687548    2.47514335   -2.48875905
     atom   25 type  2   force =     3.49367210    0.74960592   -0.78937690
     atom   26 type  2   force =     3.49367221   -0.74960595   -0.78937692
     atom   27 type  2   force =    -3.49367208    0.74960590    0.78937691
     atom   28 type  2   force =    -3.49367200   -0.74960590    0.78937684
     atom   29 type  2   force =    -0.68776594   -3.67462573   -0.58288159
     atom   30 type  2   force =    -0.68776591    3.67462565   -0.58288163
     atom   31 type  2   force =     0.68776598   -3.67462574    0.58288161
     atom   32 type  2   force =     0.68776598    3.67462588    0.58288161
     atom   33 type  2   force =    -0.79551115   -0.60777667   -2.70825412
     atom   34 type  2   force =    -0.79551127    0.60777676   -2.70825442
     atom   35 type  2   force =     0.79551124   -0.60777675    2.70825438
     atom   36 type  2   force =     0.79551125    0.60777675    2.70825441
     atom   37 type  2   force =     3.50916287    1.19904530   -1.03922965
     atom   38 type  2   force =     3.50916309   -1.19904539   -1.03922971
     atom   39 type  2   force =    -3.50916307    1.19904538    1.03922971
     atom   40 type  2   force =    -3.50916313   -1.19904539    1.03922973
     atom   41 type  2   force =    -0.74933231    3.32083968   -0.10735011
     atom   42 type  2   force =    -0.74933222   -3.32083940   -0.10735011
     atom   43 type  2   force =     0.74933225    3.32083955    0.10735009
     atom   44 type  2   force =     0.74933226   -3.32083958    0.10735008
     atom   45 type  2   force =    -0.01299763   -0.91168919    3.27553765
     atom   46 type  2   force =    -0.01299764    0.91168922    3.27553769
     atom   47 type  2   force =     0.01299761   -0.91168924   -3.27553781
     atom   48 type  2   force =     0.01299764    0.91168917   -3.27553756
     atom   49 type  3   force =    -0.00000008   -0.00000016    0.00000010
     atom   50 type  3   force =    -0.00000005    0.00000001   -0.00000022
     atom   51 type  3   force =     0.00000002    2.15597078    0.00000010
     atom   52 type  3   force =    -0.00000000   -2.15597058   -0.00000000
     atom   53 type  4   force =     0.00000037    8.29079637    0.00000011
     atom   54 type  4   force =    -0.00000013   -8.29079719   -0.00000035
     atom   55 type  4   force =    -7.20672207   -2.74120600    0.34861597
     atom   56 type  4   force =    -7.20672258    2.74120600    0.34861589
     atom   57 type  4   force =     7.20672218   -2.74120517   -0.34861585
     atom   58 type  4   force =     7.20672238    2.74120608   -0.34861614
     atom   59 type  4   force =    -2.32781735   -3.86555564    5.14348865
     atom   60 type  4   force =    -2.32781707    3.86555599    5.14348866
     atom   61 type  4   force =     2.32781637   -3.86555604   -5.14348823
     atom   62 type  4   force =     2.32781662    3.86555608   -5.14348885
     atom   63 type  4   force =    -3.38855829    3.19294705    5.04654549
     atom   64 type  4   force =    -3.38855821   -3.19294648    5.04654469
     atom   65 type  4   force =     3.38855804    3.19294713   -5.04654532
     atom   66 type  4   force =     3.38855820   -3.19294685   -5.04654527
     atom   67 type  4   force =    -5.00252249   -2.32684582   -1.62234317
     atom   68 type  4   force =    -5.00252267    2.32684554   -1.62234261
     atom   69 type  4   force =     5.00252260   -2.32684588    1.62234331
     atom   70 type  4   force =     5.00252262    2.32684543    1.62234238
     atom   71 type  4   force =    -0.96314113    2.06166506    1.91397240
     atom   72 type  4   force =    -0.96314131   -2.06166494    1.91397251
     atom   73 type  4   force =     0.96314114    2.06166508   -1.91397244
     atom   74 type  4   force =     0.96314127   -2.06166491   -1.91397255
     atom   75 type  4   force =    -0.33938350    0.46420522   -2.44445430
     atom   76 type  4   force =    -0.33938329   -0.46420555   -2.44445461
     atom   77 type  4   force =     0.33938387    0.46420547    2.44445454
     atom   78 type  4   force =     0.33938373   -0.46420565    2.44445442
     atom   79 type  4   force =    -1.69116095   -0.84031695   -1.78287008
     atom   80 type  4   force =    -1.69116072    0.84031701   -1.78287001
     atom   81 type  4   force =     1.69116031   -0.84031720    1.78287029
     atom   82 type  4   force =     1.69116088    0.84031694    1.78287029
     atom   83 type  4   force =    -1.58996036    0.72843236   -2.00451931
     atom   84 type  4   force =    -1.58996032   -0.72843230   -2.00451929
     atom   85 type  4   force =     1.58996027    0.72843241    2.00451933
     atom   86 type  4   force =     1.58996033   -0.72843224    2.00451922
     The core correction contribution to forces
     atom    1 type  1   force =    -0.00006074   -0.00333233    0.00146755
     atom    2 type  1   force =    -0.00006073    0.00333232    0.00146752
     atom    3 type  1   force =     0.00006072   -0.00333232   -0.00146751
     atom    4 type  1   force =     0.00006074    0.00333231   -0.00146752
     atom    5 type  1   force =    -0.00051762   -0.00137912   -0.00129931
     atom    6 type  1   force =    -0.00051762    0.00137913   -0.00129931
     atom    7 type  1   force =     0.00051763   -0.00137913    0.00129932
     atom    8 type  1   force =     0.00051762    0.00137913    0.00129932
     atom    9 type  2   force =     0.00000000    0.00000000    0.00000000
     atom   10 type  2   force =     0.00000000    0.00000000    0.00000000
     atom   11 type  2   force =     0.00000000    0.00000000    0.00000000
     atom   12 type  2   force =     0.00000000    0.00000000    0.00000000
     atom   13 type  2   force =     0.00000000    0.00000000    0.00000000
     atom   14 type  2   force =     0.00000000    0.00000000    0.00000000
     atom   15 type  2   force =     0.00000000    0.00000000    0.00000000
     atom   16 type  2   force =     0.00000000    0.00000000    0.00000000
     atom   17 type  2   force =     0.00000000    0.00000000    0.00000000
     atom   18 type  2   force =     0.00000000    0.00000000    0.00000000
     atom   19 type  2   force =     0.00000000    0.00000000    0.00000000
     atom   20 type  2   force =     0.00000000    0.00000000    0.00000000
     atom   21 type  2   force =     0.00000000    0.00000000    0.00000000
     atom   22 type  2   force =     0.00000000    0.00000000    0.00000000
     atom   23 type  2   force =     0.00000000    0.00000000    0.00000000
     atom   24 type  2   force =     0.00000000    0.00000000    0.00000000
     atom   25 type  2   force =     0.00000000    0.00000000    0.00000000
     atom   26 type  2   force =     0.00000000    0.00000000    0.00000000
     atom   27 type  2   force =     0.00000000    0.00000000    0.00000000
     atom   28 type  2   force =     0.00000000    0.00000000    0.00000000
     atom   29 type  2   force =     0.00000000    0.00000000    0.00000000
     atom   30 type  2   force =     0.00000000    0.00000000    0.00000000
     atom   31 type  2   force =     0.00000000    0.00000000    0.00000000
     atom   32 type  2   force =     0.00000000    0.00000000    0.00000000
     atom   33 type  2   force =     0.00000000    0.00000000    0.00000000
     atom   34 type  2   force =     0.00000000    0.00000000    0.00000000
     atom   35 type  2   force =     0.00000000    0.00000000    0.00000000
     atom   36 type  2   force =     0.00000000    0.00000000    0.00000000
     atom   37 type  2   force =     0.00000000    0.00000000    0.00000000
     atom   38 type  2   force =     0.00000000    0.00000000    0.00000000
     atom   39 type  2   force =     0.00000000    0.00000000    0.00000000
     atom   40 type  2   force =     0.00000000    0.00000000    0.00000000
     atom   41 type  2   force =     0.00000000    0.00000000    0.00000000
     atom   42 type  2   force =     0.00000000    0.00000000    0.00000000
     atom   43 type  2   force =     0.00000000    0.00000000    0.00000000
     atom   44 type  2   force =     0.00000000    0.00000000    0.00000000
     atom   45 type  2   force =     0.00000000    0.00000000    0.00000000
     atom   46 type  2   force =     0.00000000    0.00000000    0.00000000
     atom   47 type  2   force =     0.00000000    0.00000000    0.00000000
     atom   48 type  2   force =     0.00000000    0.00000000    0.00000000
     atom   49 type  3   force =     0.00000000    0.00000000    0.00000000
     atom   50 type  3   force =     0.00000000    0.00000000    0.00000000
     atom   51 type  3   force =     0.00000000    0.00000000    0.00000000
     atom   52 type  3   force =     0.00000000    0.00000000    0.00000000
     atom   53 type  4   force =    -0.00000002   -0.03356187    0.00000001
     atom   54 type  4   force =     0.00000001    0.03356189   -0.00000001
     atom   55 type  4   force =     0.03182459    0.00461280   -0.01001343
     atom   56 type  4   force =     0.03182461   -0.00461282   -0.01001344
     atom   57 type  4   force =    -0.03182459    0.00461284    0.01001342
     atom   58 type  4   force =    -0.03182461   -0.00461280    0.01001345
     atom   59 type  4   force =     0.02179407    0.00946777   -0.02187942
     atom   60 type  4   force =     0.02179409   -0.00946775   -0.02187942
     atom   61 type  4   force =    -0.02179408    0.00946775    0.02187940
     atom   62 type  4   force =    -0.02179412   -0.00946775    0.02187942
     atom   63 type  4   force =    -0.01085427   -0.01176633   -0.02982804
     atom   64 type  4   force =    -0.01085426    0.01176636   -0.02982805
     atom   65 type  4   force =     0.01085427   -0.01176633    0.02982803
     atom   66 type  4   force =     0.01085426    0.01176635    0.02982807
     atom   67 type  4   force =     0.03533039    0.00880494    0.00091955
     atom   68 type  4   force =     0.03533040   -0.00880495    0.00091955
     atom   69 type  4   force =    -0.03533040    0.00880493   -0.00091954
     atom   70 type  4   force =    -0.03533041   -0.00880495   -0.00091955
     atom   71 type  4   force =    -0.03230378    0.00194217   -0.02052403
     atom   72 type  4   force =    -0.03230379   -0.00194216   -0.02052404
     atom   73 type  4   force =     0.03230378    0.00194215    0.02052403
     atom   74 type  4   force =     0.03230380   -0.00194215    0.02052403
     atom   75 type  4   force =    -0.02701425   -0.01957137    0.00708933
     atom   76 type  4   force =    -0.02701424    0.01957136    0.00708933
     atom   77 type  4   force =     0.02701424   -0.01957137   -0.00708932
     atom   78 type  4   force =     0.02701425    0.01957136   -0.00708933
     atom   79 type  4   force =    -0.01885178    0.00417533    0.03588356
     atom   80 type  4   force =    -0.01885179   -0.00417534    0.03588356
     atom   81 type  4   force =     0.01885176    0.00417532   -0.03588356
     atom   82 type  4   force =     0.01885179   -0.00417534   -0.03588357
     atom   83 type  4   force =     0.01123874    0.02025083    0.03286003
     atom   84 type  4   force =     0.01123874   -0.02025083    0.03286004
     atom   85 type  4   force =    -0.01123874    0.02025084   -0.03286002
     atom   86 type  4   force =    -0.01123874   -0.02025083   -0.03286002
     The Hubbard contrib.    to forces
     atom    1 type  1   force =     0.00000000    0.00000000    0.00000000
     atom    2 type  1   force =     0.00000000    0.00000000    0.00000000
     atom    3 type  1   force =     0.00000000    0.00000000    0.00000000
     atom    4 type  1   force =     0.00000000    0.00000000    0.00000000
     atom    5 type  1   force =     0.00000000    0.00000000    0.00000000
     atom    6 type  1   force =     0.00000000    0.00000000    0.00000000
     atom    7 type  1   force =     0.00000000    0.00000000    0.00000000
     atom    8 type  1   force =     0.00000000    0.00000000    0.00000000
     atom    9 type  2   force =     0.00000000    0.00000000    0.00000000
     atom   10 type  2   force =     0.00000000    0.00000000    0.00000000
     atom   11 type  2   force =     0.00000000    0.00000000    0.00000000
     atom   12 type  2   force =     0.00000000    0.00000000    0.00000000
     atom   13 type  2   force =     0.00000000    0.00000000    0.00000000
     atom   14 type  2   force =     0.00000000    0.00000000    0.00000000
     atom   15 type  2   force =     0.00000000    0.00000000    0.00000000
     atom   16 type  2   force =     0.00000000    0.00000000    0.00000000
     atom   17 type  2   force =     0.00000000    0.00000000    0.00000000
     atom   18 type  2   force =     0.00000000    0.00000000    0.00000000
     atom   19 type  2   force =     0.00000000    0.00000000    0.00000000
     atom   20 type  2   force =     0.00000000    0.00000000    0.00000000
     atom   21 type  2   force =     0.00000000    0.00000000    0.00000000
     atom   22 type  2   force =     0.00000000    0.00000000    0.00000000
     atom   23 type  2   force =     0.00000000    0.00000000    0.00000000
     atom   24 type  2   force =     0.00000000    0.00000000    0.00000000
     atom   25 type  2   force =     0.00000000    0.00000000    0.00000000
     atom   26 type  2   force =     0.00000000    0.00000000    0.00000000
     atom   27 type  2   force =     0.00000000    0.00000000    0.00000000
     atom   28 type  2   force =     0.00000000    0.00000000    0.00000000
     atom   29 type  2   force =     0.00000000    0.00000000    0.00000000
     atom   30 type  2   force =     0.00000000    0.00000000    0.00000000
     atom   31 type  2   force =     0.00000000    0.00000000    0.00000000
     atom   32 type  2   force =     0.00000000    0.00000000    0.00000000
     atom   33 type  2   force =     0.00000000    0.00000000    0.00000000
     atom   34 type  2   force =     0.00000000    0.00000000    0.00000000
     atom   35 type  2   force =     0.00000000    0.00000000    0.00000000
     atom   36 type  2   force =     0.00000000    0.00000000    0.00000000
     atom   37 type  2   force =     0.00000000    0.00000000    0.00000000
     atom   38 type  2   force =     0.00000000    0.00000000    0.00000000
     atom   39 type  2   force =     0.00000000    0.00000000    0.00000000
     atom   40 type  2   force =     0.00000000    0.00000000    0.00000000
     atom   41 type  2   force =     0.00000000    0.00000000    0.00000000
     atom   42 type  2   force =     0.00000000    0.00000000    0.00000000
     atom   43 type  2   force =     0.00000000    0.00000000    0.00000000
     atom   44 type  2   force =     0.00000000    0.00000000    0.00000000
     atom   45 type  2   force =     0.00000000    0.00000000    0.00000000
     atom   46 type  2   force =     0.00000000    0.00000000    0.00000000
     atom   47 type  2   force =     0.00000000    0.00000000    0.00000000
     atom   48 type  2   force =     0.00000000    0.00000000    0.00000000
     atom   49 type  3   force =     0.00000000    0.00000000    0.00000000
     atom   50 type  3   force =     0.00000000    0.00000000    0.00000000
     atom   51 type  3   force =     0.00000000    0.00000000    0.00000000
     atom   52 type  3   force =     0.00000000    0.00000000    0.00000000
     atom   53 type  4   force =     0.00000000    0.00000000    0.00000000
     atom   54 type  4   force =     0.00000000    0.00000000    0.00000000
     atom   55 type  4   force =     0.00000000    0.00000000    0.00000000
     atom   56 type  4   force =     0.00000000    0.00000000    0.00000000
     atom   57 type  4   force =     0.00000000    0.00000000    0.00000000
     atom   58 type  4   force =     0.00000000    0.00000000    0.00000000
     atom   59 type  4   force =     0.00000000    0.00000000    0.00000000
     atom   60 type  4   force =     0.00000000    0.00000000    0.00000000
     atom   61 type  4   force =     0.00000000    0.00000000    0.00000000
     atom   62 type  4   force =     0.00000000    0.00000000    0.00000000
     atom   63 type  4   force =     0.00000000    0.00000000    0.00000000
     atom   64 type  4   force =     0.00000000    0.00000000    0.00000000
     atom   65 type  4   force =     0.00000000    0.00000000    0.00000000
     atom   66 type  4   force =     0.00000000    0.00000000    0.00000000
     atom   67 type  4   force =     0.00000000    0.00000000    0.00000000
     atom   68 type  4   force =     0.00000000    0.00000000    0.00000000
     atom   69 type  4   force =     0.00000000    0.00000000    0.00000000
     atom   70 type  4   force =     0.00000000    0.00000000    0.00000000
     atom   71 type  4   force =     0.00000000    0.00000000    0.00000000
     atom   72 type  4   force =     0.00000000    0.00000000    0.00000000
     atom   73 type  4   force =     0.00000000    0.00000000    0.00000000
     atom   74 type  4   force =     0.00000000    0.00000000    0.00000000
     atom   75 type  4   force =     0.00000000    0.00000000    0.00000000
     atom   76 type  4   force =     0.00000000    0.00000000    0.00000000
     atom   77 type  4   force =     0.00000000    0.00000000    0.00000000
     atom   78 type  4   force =     0.00000000    0.00000000    0.00000000
     atom   79 type  4   force =     0.00000000    0.00000000    0.00000000
     atom   80 type  4   force =     0.00000000    0.00000000    0.00000000
     atom   81 type  4   force =     0.00000000    0.00000000    0.00000000
     atom   82 type  4   force =     0.00000000    0.00000000    0.00000000
     atom   83 type  4   force =     0.00000000    0.00000000    0.00000000
     atom   84 type  4   force =     0.00000000    0.00000000    0.00000000
     atom   85 type  4   force =     0.00000000    0.00000000    0.00000000
     atom   86 type  4   force =     0.00000000    0.00000000    0.00000000
     The SCF correction term to forces
     atom    1 type  1   force =    -0.00000090   -0.00000027    0.00000188
     atom    2 type  1   force =    -0.00000069    0.00000021    0.00000191
     atom    3 type  1   force =     0.00000083   -0.00000019   -0.00000212
     atom    4 type  1   force =     0.00000073    0.00000031   -0.00000170
     atom    5 type  1   force =    -0.00000139    0.00000001   -0.00000047
     atom    6 type  1   force =    -0.00000113    0.00000004   -0.00000050
     atom    7 type  1   force =     0.00000127   -0.00000011    0.00000054
     atom    8 type  1   force =     0.00000119   -0.00000001    0.00000037
     atom    9 type  2   force =     0.00000140    0.00000028   -0.00000018
     atom   10 type  2   force =     0.00000151   -0.00000032   -0.00000010
     atom   11 type  2   force =    -0.00000150    0.00000028    0.00000010
     atom   12 type  2   force =    -0.00000136   -0.00000033    0.00000022
     atom   13 type  2   force =    -0.00000078    0.00000032   -0.00000066
     atom   14 type  2   force =    -0.00000077   -0.00000029   -0.00000063
     atom   15 type  2   force =     0.00000073    0.00000035    0.00000071
     atom   16 type  2   force =     0.00000075   -0.00000032    0.00000066
     atom   17 type  2   force =     0.00000026   -0.00000052   -0.00000056
     atom   18 type  2   force =     0.00000026    0.00000050   -0.00000053
     atom   19 type  2   force =    -0.00000031   -0.00000052    0.00000057
     atom   20 type  2   force =    -0.00000024    0.00000049    0.00000053
     atom   21 type  2   force =    -0.00000048   -0.00000034    0.00000034
     atom   22 type  2   force =    -0.00000048    0.00000031    0.00000031
     atom   23 type  2   force =     0.00000047   -0.00000030   -0.00000030
     atom   24 type  2   force =     0.00000047    0.00000037   -0.00000039
     atom   25 type  2   force =    -0.00000056    0.00000052    0.00000019
     atom   26 type  2   force =    -0.00000063   -0.00000049    0.00000020
     atom   27 type  2   force =     0.00000055    0.00000054   -0.00000021
     atom   28 type  2   force =     0.00000049   -0.00000053   -0.00000014
     atom   29 type  2   force =     0.00000059    0.00000012   -0.00000020
     atom   30 type  2   force =     0.00000058   -0.00000006   -0.00000015
     atom   31 type  2   force =    -0.00000062    0.00000009    0.00000017
     atom   32 type  2   force =    -0.00000063   -0.00000019    0.00000017
     atom   33 type  2   force =    -0.00000016    0.00000020   -0.00000019
     atom   34 type  2   force =    -0.00000007   -0.00000025   -0.00000000
     atom   35 type  2   force =     0.00000011    0.00000025    0.00000004
     atom   36 type  2   force =     0.00000007   -0.00000024    0.00000001
     atom   37 type  2   force =     0.00000085    0.00000033   -0.00000015
     atom   38 type  2   force =     0.00000071   -0.00000027   -0.00000009
     atom   39 type  2   force =    -0.00000073    0.00000027    0.00000011
     atom   40 type  2   force =    -0.00000068   -0.00000027    0.00000008
     atom   41 type  2   force =     0.00000015   -0.00000052    0.00000027
     atom   42 type  2   force =     0.00000008    0.00000033    0.00000027
     atom   43 type  2   force =    -0.00000011   -0.00000046   -0.00000025
     atom   44 type  2   force =    -0.00000010    0.00000046   -0.00000024
     atom   45 type  2   force =     0.00000036   -0.00000068    0.00000022
     atom   46 type  2   force =     0.00000037    0.00000066    0.00000022
     atom   47 type  2   force =    -0.00000034   -0.00000066   -0.00000015
     atom   48 type  2   force =    -0.00000037    0.00000069   -0.00000029
     atom   49 type  3   force =     0.00000012    0.00000025   -0.00000020
     atom   50 type  3   force =     0.00000017   -0.00000004    0.00000040
     atom   51 type  3   force =    -0.00000004   -0.00000447   -0.00000019
     atom   52 type  3   force =     0.00000003    0.00000410    0.00000000
     atom   53 type  4   force =    -0.00000035    0.00000026   -0.00000030
     atom   54 type  4   force =    -0.00000007    0.00000015    0.00000007
     atom   55 type  4   force =     0.00000027   -0.00000182   -0.00000348
     atom   56 type  4   force =     0.00000068    0.00000179   -0.00000373
     atom   57 type  4   force =    -0.00000023   -0.00000227    0.00000299
     atom   58 type  4   force =    -0.00000024    0.00000201    0.00000388
     atom   59 type  4   force =    -0.00000315   -0.00000120   -0.00000407
     atom   60 type  4   force =    -0.00000266    0.00000158   -0.00000394
     atom   61 type  4   force =     0.00000408   -0.00000076    0.00000416
     atom   62 type  4   force =     0.00000310    0.00000117    0.00000440
     atom   63 type  4   force =    -0.00000402    0.00000748    0.00000683
     atom   64 type  4   force =    -0.00000381   -0.00000825    0.00000760
     atom   65 type  4   force =     0.00000440    0.00000748   -0.00000695
     atom   66 type  4   force =     0.00000375   -0.00000793   -0.00000703
     atom   67 type  4   force =    -0.00000869    0.00000063   -0.00000611
     atom   68 type  4   force =    -0.00000867   -0.00000040   -0.00000635
     atom   69 type  4   force =     0.00000851    0.00000063    0.00000588
     atom   70 type  4   force =     0.00000850   -0.00000039    0.00000658
     atom   71 type  4   force =     0.00000791    0.00000119    0.00000437
     atom   72 type  4   force =     0.00000807   -0.00000127    0.00000434
     atom   73 type  4   force =    -0.00000793    0.00000103   -0.00000444
     atom   74 type  4   force =    -0.00000807   -0.00000130   -0.00000430
     atom   75 type  4   force =     0.00000599    0.00000461   -0.00000462
     atom   76 type  4   force =     0.00000588   -0.00000435   -0.00000421
     atom   77 type  4   force =    -0.00000644    0.00000433    0.00000438
     atom   78 type  4   force =    -0.00000630   -0.00000419    0.00000446
     atom   79 type  4   force =    -0.00000223   -0.00000651   -0.00000165
     atom   80 type  4   force =    -0.00000262    0.00000639   -0.00000179
     atom   81 type  4   force =     0.00000285   -0.00000626    0.00000141
     atom   82 type  4   force =     0.00000239    0.00000647    0.00000150
     atom   83 type  4   force =     0.00000090    0.00000231   -0.00000379
     atom   84 type  4   force =     0.00000092   -0.00000238   -0.00000370
     atom   85 type  4   force =    -0.00000082    0.00000222    0.00000370
     atom   86 type  4   force =    -0.00000098   -0.00000243    0.00000394

     Total force =     3.241446     Total SCF correction =     0.000046


     Computing stress (Cartesian axis) and pressure

 NFL =        13105
 NFL =        13105
 NFL =        13105
 NFL =        13105
 SDEWALD = %12.6f   0.0000000000000000     
          total   stress  (Ry/bohr**3)                   (kbar)     P=      255.13
   0.00197313   0.00000000  -0.00012246          290.26        0.00      -18.01
  -0.00000000   0.00165645   0.00000000           -0.00      243.67        0.00
  -0.00012246   0.00000000   0.00157343          -18.01        0.00      231.46

     kinetic stress (kbar)  21450.81      0.00     85.06
                               -0.00  21844.45      0.00
                               85.06      0.00  21688.92

     local   stress (kbar) -10301.15     -0.00    966.69
                               -0.00  -4606.40     -0.00
                              966.69     -0.00 -10549.39

     nonloc. stress (kbar)  -8090.96      0.00     -5.84
                                0.00  -8109.49      0.00
                               -5.84      0.00  -8110.65

     hartree stress (kbar)   6977.67      0.00   -316.04
                                0.00   5056.78      0.00
                             -316.04      0.00   7325.58

     exc-cor stress (kbar)  -2032.72     -0.00     -2.12
                               -0.00  -2045.69      0.00
                               -2.12      0.00  -2036.81

     corecor stress (kbar)  -1502.93      0.00      0.13
                                0.00  -1502.22     -0.00
                                0.13     -0.00  -1503.67

     ewald   stress (kbar)  -6210.46      0.00   -745.90
                                0.00 -10393.76     -0.00
                             -745.90     -0.00  -6582.51

     hubbard stress (kbar)      0.00      0.00      0.00
                                0.00      0.00      0.00
                                0.00      0.00      0.00

     DFT-D   stress (kbar)      0.00      0.00      0.00
                                0.00      0.00      0.00
                                0.00      0.00      0.00

     XDM     stress (kbar)      0.00      0.00      0.00
                                0.00      0.00      0.00
                                0.00      0.00      0.00

     dft-nl  stress (kbar)      0.00      0.00      0.00
                                0.00      0.00      0.00
                                0.00      0.00      0.00

     TS-vdW  stress (kbar)      0.00      0.00      0.00
                                0.00      0.00      0.00
                                0.00      0.00      0.00


                                0.00      0.00      0.00
                                0.00      0.00      0.00


                                0.00      0.00      0.00


     Writing all to output data dir ./out/aiida.save/

     init_run     :      2.30s CPU      2.36s WALL (       1 calls)
     electrons    :      9.29s CPU      9.89s WALL (       1 calls)
     forces       :      1.35s CPU      1.38s WALL (       1 calls)
     stress       :      6.33s CPU      6.37s WALL (       1 calls)

     Called by init_run:
     wfcinit      :      0.26s CPU      0.30s WALL (       1 calls)
     wfcinit:atom :      0.00s CPU      0.01s WALL (       1 calls)
     wfcinit:wfcr :      0.24s CPU      0.25s WALL (       1 calls)
     potinit      :      0.72s CPU      0.73s WALL (       1 calls)
     hinit0       :      1.27s CPU      1.28s WALL (       1 calls)

     Called by electrons:
     c_bands      :      8.20s CPU      8.69s WALL (      11 calls)
     sum_band     :      0.76s CPU      0.81s WALL (      11 calls)
     v_of_rho     :      0.27s CPU      0.33s WALL (      12 calls)
     v_h          :      0.03s CPU      0.03s WALL (      12 calls)
     v_xc         :      0.29s CPU      0.35s WALL (      14 calls)
     mix_rho      :      0.06s CPU      0.06s WALL (      11 calls)

     Called by c_bands:
     init_us_2    :      0.31s CPU      0.33s WALL (      23 calls)
     init_us_2:cp :      0.31s CPU      0.33s WALL (      23 calls)
     regterg      :      7.86s CPU      8.34s WALL (      11 calls)

     Called by sum_band:
     sum_band:wei :      0.00s CPU      0.00s WALL (      11 calls)
     sum_band:loo :      0.73s CPU      0.77s WALL (      11 calls)
     sum_band:buf :      0.00s CPU      0.00s WALL (      11 calls)
     sum_band:ini :      0.15s CPU      0.15s WALL (      11 calls)

     Called by *egterg:
     rdiaghg      :      1.25s CPU      1.25s WALL (      59 calls)
     regterg:over :      0.50s CPU      0.52s WALL (      48 calls)
     regterg:upda :      0.40s CPU      0.40s WALL (      48 calls)
     regterg:last :      0.59s CPU      0.59s WALL (      24 calls)
     h_psi        :      4.93s CPU      5.27s WALL (      60 calls)
     g_psi        :      0.02s CPU      0.02s WALL (      48 calls)

     Called by h_psi:
     h_psi:calbec :      0.90s CPU      0.93s WALL (      60 calls)
     vloc_psi     :      3.11s CPU      3.41s WALL (      60 calls)
     add_vuspsi   :      0.80s CPU      0.81s WALL (      60 calls)

     General routines
     calbec       :      1.01s CPU      1.04s WALL (      65 calls)
     fft          :      0.42s CPU      0.45s WALL (     115 calls)
     ffts         :      0.01s CPU      0.02s WALL (      11 calls)
     fftw         :      3.46s CPU      3.77s WALL (    6503 calls)

     Parallel routines

     PWSCF        :     19.39s CPU     20.20s WALL


   This run was terminated on:  12:24:18  22Sep2022            

=------------------------------------------------------------------------------=
   JOB DONE.
=------------------------------------------------------------------------------=
