--------------------------------------------------------------------------
[[21557,1],2]: A high-performance Open MPI point-to-point messaging module
was unable to find any relevant network interfaces:

Module: OpenFabrics (openib)
  Host: emils

Another transport will be used instead, although this may result in
lower performance.

NOTE: You can disable this warning by setting the MCA parameter
btl_base_warn_component_unused to 0.
--------------------------------------------------------------------------

     Program PWSCF v.7.0 starts on 21Sep2022 at 16:20:32 

     This program is part of the open-source Quantum ESPRESSO suite
     for quantum simulation of materials; please cite
         "P. Giannozzi et al., J. Phys.:Condens. Matter 21 395502 (2009);
         "P. Giannozzi et al., J. Phys.:Condens. Matter 29 465901 (2017);
         "P. Giannozzi et al., J. Chem. Phys. 152 154105 (2020);
          URL http://www.quantum-espresso.org", 
     in publications or presentations arising from this work. More details at
     http://www.quantum-espresso.org/quote

     Parallel version (MPI), running on    24 processors

     MPI processes distributed on     1 nodes
     R & G space division:  proc/nbgrp/npool/nimage =      24
     37447 MiB available memory on the printing compute node when the environment starts

     Waiting for input...
     Reading input from standard input

     Current dimensions of program PWSCF are:
     Max number of different atomic species (ntypx) = 10
     Max number of k-points (npk) =  40000
     Max angular momentum in pseudopotentials (lmaxx) =  4
 BFGS INIT            1     0.80000000000000004           1.0000000000000000E-004     0.50000000000000000           1.0000000000000000E-002     0.50000000000000000     

     gamma-point specific algorithms are used
     Message from routine setup:
     using ibrav=0 with symmetry is DISCOURAGED, use correct ibrav instead

     Subspace diagonalization in iterative solution of the eigenvalue problem:
     a serial algorithm will be used

 GGGGGGGGG0     0.0000000000000000             1.0539549771389620             1.0539549771389620            0.46399005184828723     
 GGGGGGGGG1     406.21828058572305     
 GGGGGGGGG2     406.21828058572305            1624.8731223428922             1624.8731223428922     
 TPIBA    0.41753424120949306           0.17433484258238713     
 GCUTM =    1624.8731223428922     
 AAAA    0.71438855503944720          0.66572287068339109         -0.21555057846759684     
 AAAA    0.71438855503944720         -0.66572287068339109         -0.21555057846759684     
 AAAA    -0.0000000000000000          -0.0000000000000000          -1.5334368072363300     
   40.309714987120564               41
   40.309714987120564               41
   61.812400650456603               62
 NX =           81
 NY =           81
 NZ =          123
 GCUTM =    1624.8731223428922     
 AAAA    0.71438855503944720          0.66572287068339109         -0.21555057846759684     
 AAAA    0.71438855503944720         -0.66572287068339109         -0.21555057846759684     
 AAAA    -0.0000000000000000          -0.0000000000000000          -1.5334368072363300     
   40.309714987120564               41
   40.309714987120564               41
   61.812400650456603               62
 NX =           81
 NY =           81
 NZ =          123

     Parallelization info
     --------------------
     sticks:   dense  smooth     PW     G-vecs:    dense   smooth      PW
     Min         210     210     51                16664    16664    2078
     Max         212     212     54                16680    16680    2086
     Sum        5077    5077   1265               400137   400137   49981

     Using Slab Decomposition



     bravais-lattice index     =            0
     lattice parameter (alat)  =      15.0483  a.u.
     unit-cell volume          =    4970.3521 (a.u.)^3
     number of atoms/cell      =           86
     number of atomic types    =            4
     number of electrons       =       304.00
     number of Kohn-Sham states=          182
     kinetic-energy cutoff     =      70.8180  Ry
     charge density cutoff     =     283.2720  Ry
     scf convergence threshold =      1.7E-08
     mixing beta               =       0.4000
     number of iterations used =            8  plain     mixing
     Exchange-correlation= PBE
                           (   1   4   3   4   0   0   0)

     celldm(1)=  15.048311  celldm(2)=   0.000000  celldm(3)=   0.000000
     celldm(4)=   0.000000  celldm(5)=   0.000000  celldm(6)=   0.000000

     crystal axes: (cart. coord. in units of alat)
               a(1) = (   0.714389   0.665723  -0.215551 )  
               a(2) = (   0.714389  -0.665723  -0.215551 )  
               a(3) = (  -0.000000  -0.000000  -1.533437 )  

     reciprocal axes: (cart. coord. in units 2 pi/alat)
               b(1) = (  0.699899  0.751063 -0.000000 )  
               b(2) = (  0.699899 -0.751063  0.000000 )  
               b(3) = ( -0.196765  0.000000 -0.652130 )  


     PseudoPot. # 1 for B  read from file:
     /home/briggs/Pseudo/nc-sr-04_pbe_stringent/B.upf
     MD5 check sum: 72f82fc31bc892420d0cab7e25c88ab8
     Pseudo is Norm-conserving + core correction, Zval =  3.0
     Generated using ONCVPSP code by D. R. Hamann
     Using radial grid of 1534 points,  4 beta functions with: 
                l(1) =   0
                l(2) =   0
                l(3) =   1
                l(4) =   1

     PseudoPot. # 2 for H  read from file:
     /home/briggs/Pseudo/nc-sr-04_pbe_stringent/H.upf
     MD5 check sum: e96aa7e3e4a958db16958554ea960e2a
     Pseudo is Norm-conserving, Zval =  1.0
     Generated using ONCVPSP code by D. R. Hamann
     Using radial grid of 1166 points,  3 beta functions with: 
                l(1) =   0
                l(2) =   0
                l(3) =   1

     PseudoPot. # 3 for Na read from file:
     /home/briggs/Pseudo/nc-sr-04_pbe_stringent/Na.upf
     MD5 check sum: ed5af011864af3d1529ce3b51bbccf87
     Pseudo is Norm-conserving, Zval =  9.0
     Generated using ONCVPSP code by D. R. Hamann
     Using radial grid of 1992 points,  4 beta functions with: 
                l(1) =   0
                l(2) =   0
                l(3) =   1
                l(4) =   1

     PseudoPot. # 4 for O  read from file:
     /home/briggs/Pseudo/nc-sr-04_pbe_stringent/O.upf
     MD5 check sum: 9db02a5ece9d56b81b65a73f8163743d
     Pseudo is Norm-conserving + core correction, Zval =  6.0
     Generated using ONCVPSP code by D. R. Hamann
     Using radial grid of  936 points,  5 beta functions with: 
                l(1) =   0
                l(2) =   0
                l(3) =   1
                l(4) =   1
                l(5) =   2

     atomic species   valence    mass     pseudopotential
        B              3.00    10.81100     B ( 1.00)
        H              1.00     1.00800     H ( 1.00)
        Na             9.00    22.99000     Na( 1.00)
        O              6.00    15.99900     O ( 1.00)

      4 Sym. Ops., with inversion, found ( 2 have fractional translation)


                                    s                        frac. trans.

      isym =  1     identity                                     

 cryst.   s( 1) = (     1          0          0      )
                  (     0          1          0      )
                  (     0          0          1      )

 cart.    s( 1) = (  1.0000000  0.0000000  0.0000000 )
                  (  0.0000000  1.0000000  0.0000000 )
                  (  0.0000000  0.0000000  1.0000000 )


      isym =  2     180 deg rotation - cart. axis [0,1,0]        

 cryst.   s( 2) = (     0         -1          0      )    f =(  0.0000000 )
                  (    -1          0          0      )       (  0.0000000 )
                  (     0          0         -1      )       ( -0.5000000 )

 cart.    s( 2) = ( -1.0000000  0.0000000  0.0000000 )    f =(  0.0000000 )
                  (  0.0000000  1.0000000  0.0000000 )       ( -0.0000000 )
                  ( -0.0000000  0.0000000 -1.0000000 )       (  0.7667184 )


      isym =  3     inversion                                    

 cryst.   s( 3) = (    -1          0          0      )
                  (     0         -1          0      )
                  (     0          0         -1      )

 cart.    s( 3) = ( -1.0000000  0.0000000  0.0000000 )
                  (  0.0000000 -1.0000000  0.0000000 )
                  ( -0.0000000  0.0000000 -1.0000000 )


      isym =  4     inv. 180 deg rotation - cart. axis [0,1,0]   

 cryst.   s( 4) = (     0          1          0      )    f =(  0.0000000 )
                  (     1          0          0      )       (  0.0000000 )
                  (     0          0          1      )       ( -0.5000000 )

 cart.    s( 4) = (  1.0000000  0.0000000  0.0000000 )    f =(  0.0000000 )
                  (  0.0000000 -1.0000000  0.0000000 )       (  0.0000000 )
                  (  0.0000000  0.0000000  1.0000000 )       (  0.7667184 )


   Cartesian axes

     site n.     atom                  positions (alat units)
         1           B   tau(   1) = (   0.8365776  -0.2063874  -1.4553535  )
         2           B   tau(   2) = (   0.8365776   0.2063874  -0.6886351  )
         3           B   tau(   3) = (   0.5921995  -0.2063874  -1.2759028  )
         4           B   tau(   4) = (   0.5921995   0.2063874  -0.5091844  )
         5           B   tau(   5) = (   0.8550802  -0.0580111  -1.1892726  )
         6           B   tau(   6) = (   0.8550802   0.0580111  -0.4225542  )
         7           B   tau(   7) = (   0.5736969  -0.0580111  -1.5419838  )
         8           B   tau(   8) = (   0.5736969   0.0580111  -0.7752653  )
         9           H   tau(   9) = (   0.3881987  -0.3166178  -1.2095506  )
        10           H   tau(  10) = (   0.3881987   0.3166178  -0.4428322  )
        11           H   tau(  11) = (   1.0405784  -0.3166178  -1.5217058  )
        12           H   tau(  12) = (   1.0405784   0.3166178  -0.7549874  )
        13           H   tau(  13) = (   0.8839844  -0.0443371  -1.7533893  )
        14           H   tau(  14) = (   0.8839844   0.0443371  -0.9866709  )
        15           H   tau(  15) = (   0.5447927  -0.0443371  -0.9778671  )
        16           H   tau(  16) = (   0.5447927   0.0443371  -0.2111487  )
        17           H   tau(  17) = (   1.1557378  -0.1560454  -1.8188236  )
        18           H   tau(  18) = (   1.1557378   0.1560454  -1.0521052  )
        19           H   tau(  19) = (   0.2730393  -0.1560454  -0.9124328  )
        20           H   tau(  20) = (   0.2730393   0.1560454  -0.1457144  )
        21           H   tau(  21) = (   0.5232182  -0.3970371  -0.9336349  )
        22           H   tau(  22) = (   0.5232182   0.3970371  -0.1669165  )
        23           H   tau(  23) = (   0.9055589  -0.3970371  -1.7976214  )
        24           H   tau(  24) = (   0.9055589   0.3970371  -1.0309030  )
        25           H   tau(  25) = (   1.1570237  -0.0243655  -1.4146910  )
        26           H   tau(  26) = (   1.1570237   0.0243655  -0.6479726  )
        27           H   tau(  27) = (   0.2717534  -0.0243655  -1.3165654  )
        28           H   tau(  28) = (   0.2717534   0.0243655  -0.5498470  )
        29           H   tau(  29) = (   0.1863125   0.1033202  -1.2808182  )
        30           H   tau(  30) = (   0.1863125  -0.1033202  -0.5140998  )
        31           H   tau(  31) = (   1.2424646   0.1033202  -1.4504381  )
        32           H   tau(  32) = (   1.2424646  -0.1033202  -0.6837197  )
        33           H   tau(  33) = (   0.5856557  -0.4119493  -1.5453007  )
        34           H   tau(  34) = (   0.5856557   0.4119493  -0.7785823  )
        35           H   tau(  35) = (   0.8431214  -0.4119493  -1.1859557  )
        36           H   tau(  36) = (   0.8431214   0.4119493  -0.4192372  )
        37           H   tau(  37) = (   1.1617387   0.1817423  -1.8299882  )
        38           H   tau(  38) = (   1.1617387  -0.1817423  -1.0632698  )
        39           H   tau(  39) = (   0.2670384   0.1817423  -0.9012682  )
        40           H   tau(  40) = (   0.2670384  -0.1817423  -0.1345498  )
        41           H   tau(  41) = (   0.5740826   0.1730879  -1.1875849  )
        42           H   tau(  42) = (   0.5740826  -0.1730879  -0.4208665  )
        43           H   tau(  43) = (   0.8546945   0.1730879  -1.5436715  )
        44           H   tau(  44) = (   0.8546945  -0.1730879  -0.7769531  )
        45           H   tau(  45) = (   0.8772691   0.3103600  -1.6358953  )
        46           H   tau(  46) = (   0.8772691  -0.3103600  -0.8691769  )
        47           H   tau(  47) = (   0.5515080   0.3103600  -1.0953611  )
        48           H   tau(  48) = (   0.5515080  -0.3103600  -0.3286427  )
        49           Na  tau(  49) = (   0.0000000   0.0000000  -0.0000000  )
        50           Na  tau(  50) = (   0.0000000   0.0000000  -0.7667184  )
        51           Na  tau(  51) = (   0.7143886   0.4632765  -1.3656282  )
        52           Na  tau(  52) = (   0.7143886  -0.4632765  -0.5989098  )
        53           O   tau(  53) = (   0.7143886  -0.3107728  -1.3656282  )
        54           O   tau(  54) = (   0.7143886   0.3107728  -0.5989098  )
        55           O   tau(  55) = (   0.9365062  -0.1074876  -1.3318390  )
        56           O   tau(  56) = (   0.9365062   0.1074876  -0.5651206  )
        57           O   tau(  57) = (   0.4922709  -0.1074876  -1.3994173  )
        58           O   tau(  58) = (   0.4922709   0.1074876  -0.6326989  )
        59           O   tau(  59) = (   0.7424497  -0.0855720  -1.5666180  )
        60           O   tau(  60) = (   0.7424497   0.0855720  -0.7998996  )
        61           O   tau(  61) = (   0.6863274  -0.0855720  -1.1646384  )
        62           O   tau(  62) = (   0.6863274   0.0855720  -0.3979200  )
        63           O   tau(  63) = (   0.9449932  -0.3060461  -1.5613791  )
        64           O   tau(  64) = (   0.9449932   0.3060461  -0.7946607  )
        65           O   tau(  65) = (   0.4837839  -0.3060461  -1.1698773  )
        66           O   tau(  66) = (   0.4837839   0.3060461  -0.4031589  )
        67           O   tau(  67) = (   0.9482651   0.0202646  -1.0661768  )
        68           O   tau(  68) = (   0.9482651  -0.0202646  -0.2994584  )
        69           O   tau(  69) = (   0.4805120   0.0202646  -1.6650795  )
        70           O   tau(  70) = (   0.4805120  -0.0202646  -0.8983611  )
        71           O   tau(  71) = (   0.8909425   0.4607734  -1.1145735  )
        72           O   tau(  72) = (   0.8909425  -0.4607734  -0.3478551  )
        73           O   tau(  73) = (   0.5378346   0.4607734  -1.6166829  )
        74           O   tau(  74) = (   0.5378346  -0.4607734  -0.8499645  )
        75           O   tau(  75) = (   0.1756824   0.0015578  -1.2866888  )
        76           O   tau(  76) = (   0.1756824  -0.0015578  -0.5199704  )
        77           O   tau(  77) = (   1.2530947   0.0015578  -1.4445676  )
        78           O   tau(  78) = (   1.2530947  -0.0015578  -0.6778492  )
        79           O   tau(  79) = (   0.8846845  -0.4452887  -1.0911251  )
        80           O   tau(  80) = (   0.8846845   0.4452887  -0.3244067  )
        81           O   tau(  81) = (   0.5440926  -0.4452887  -1.6401312  )
        82           O   tau(  82) = (   0.5440926   0.4452887  -0.8734128  )
        83           O   tau(  83) = (   0.8822127   0.2749968  -1.5354594  )
        84           O   tau(  84) = (   0.8822127  -0.2749968  -0.7687410  )
        85           O   tau(  85) = (   0.5465644   0.2749968  -1.1957970  )
        86           O   tau(  86) = (   0.5465644  -0.2749968  -0.4290786  )

   Crystallographic axes

     site n.     atom                  positions (cryst. coord.)
         1           B   tau(   1) = (  0.4305100  0.7405300  0.7844700  )
         2           B   tau(   2) = (  0.7405300  0.4305100  0.2844700  )
         3           B   tau(   3) = (  0.2594700  0.5694900  0.7155300  )
         4           B   tau(   4) = (  0.5694900  0.2594700  0.2155300  )
         5           B   tau(   5) = (  0.5549000  0.6420400  0.6073100  )
         6           B   tau(   6) = (  0.6420400  0.5549000  0.1073100  )
         7           B   tau(   7) = (  0.3579600  0.4451000  0.8926900  )
         8           B   tau(   8) = (  0.4451000  0.3579600  0.3926900  )
         9           H   tau(   9) = (  0.0339000  0.5095000  0.7124000  )
        10           H   tau(  10) = (  0.5095000  0.0339000  0.2124000  )
        11           H   tau(  11) = (  0.4905000  0.9661000  0.7876000  )
        12           H   tau(  12) = (  0.9661000  0.4905000  0.2876000  )
        13           H   tau(  13) = (  0.5854000  0.6520000  0.9695000  )
        14           H   tau(  14) = (  0.6520000  0.5854000  0.4695000  )
        15           H   tau(  15) = (  0.3480000  0.4146000  0.5305000  )
        16           H   tau(  16) = (  0.4146000  0.3480000  0.0305000  )
        17           H   tau(  17) = (  0.6917000  0.9261000  0.9587000  )
        18           H   tau(  18) = (  0.9261000  0.6917000  0.4587000  )
        19           H   tau(  19) = (  0.0739000  0.3083000  0.5413000  )
        20           H   tau(  20) = (  0.3083000  0.0739000  0.0413000  )
        21           H   tau(  21) = (  0.0680000  0.6644000  0.5059000  )
        22           H   tau(  22) = (  0.6644000  0.0680000  0.0059000  )
        23           H   tau(  23) = (  0.3356000  0.9320000  0.9941000  )
        24           H   tau(  24) = (  0.9320000  0.3356000  0.4941000  )
        25           H   tau(  25) = (  0.7915000  0.8281000  0.6949000  )
        26           H   tau(  26) = (  0.8281000  0.7915000  0.1949000  )
        27           H   tau(  27) = (  0.1719000  0.2085000  0.8051000  )
        28           H   tau(  28) = (  0.2085000  0.1719000  0.3051000  )
        29           H   tau(  29) = (  0.2080000  0.0528000  0.7986000  )
        30           H   tau(  30) = (  0.0528000  0.2080000  0.2986000  )
        31           H   tau(  31) = (  0.9472000  0.7920000  0.7014000  )
        32           H   tau(  32) = (  0.7920000  0.9472000  0.2014000  )
        33           H   tau(  33) = (  0.1005000  0.7193000  0.8925000  )
        34           H   tau(  34) = (  0.7193000  0.1005000  0.3925000  )
        35           H   tau(  35) = (  0.2807000  0.8995000  0.6075000  )
        36           H   tau(  36) = (  0.8995000  0.2807000  0.1075000  )
        37           H   tau(  37) = (  0.9496000  0.6766000  0.9648000  )
        38           H   tau(  38) = (  0.6766000  0.9496000  0.4648000  )
        39           H   tau(  39) = (  0.3234000  0.0504000  0.5352000  )
        40           H   tau(  40) = (  0.0504000  0.3234000  0.0352000  )
        41           H   tau(  41) = (  0.5318000  0.2718000  0.6615000  )
        42           H   tau(  42) = (  0.2718000  0.5318000  0.1615000  )
        43           H   tau(  43) = (  0.7282000  0.4682000  0.8385000  )
        44           H   tau(  44) = (  0.4682000  0.7282000  0.3385000  )
        45           H   tau(  45) = (  0.8471000  0.3809000  0.8942000  )
        46           H   tau(  46) = (  0.3809000  0.8471000  0.3942000  )
        47           H   tau(  47) = (  0.6191000  0.1529000  0.6058000  )
        48           H   tau(  48) = (  0.1529000  0.6191000  0.1058000  )
        49           Na  tau(  49) = (  0.0000000  0.0000000  0.0000000  )
        50           Na  tau(  50) = (  0.0000000  0.0000000  0.5000000  )
        51           Na  tau(  51) = (  0.8479500  0.1520500  0.7500000  )
        52           Na  tau(  52) = (  0.1520500  0.8479500  0.2500000  )
        53           O   tau(  53) = (  0.2665900  0.7334100  0.7500000  )
        54           O   tau(  54) = (  0.7334100  0.2665900  0.2500000  )
        55           O   tau(  55) = (  0.5747300  0.7361900  0.6842600  )
        56           O   tau(  56) = (  0.7361900  0.5747300  0.1842600  )
        57           O   tau(  57) = (  0.2638100  0.4252700  0.8157400  )
        58           O   tau(  58) = (  0.4252700  0.2638100  0.3157400  )
        59           O   tau(  59) = (  0.4553700  0.5839100  0.8755500  )
        60           O   tau(  60) = (  0.5839100  0.4553700  0.3755500  )
        61           O   tau(  61) = (  0.4160900  0.5446300  0.6244500  )
        62           O   tau(  62) = (  0.5446300  0.4160900  0.1244500  )
        63           O   tau(  63) = (  0.4315400  0.8912600  0.8322800  )
        64           O   tau(  64) = (  0.8912600  0.4315400  0.3322800  )
        65           O   tau(  65) = (  0.1087400  0.5684600  0.6677200  )
        66           O   tau(  66) = (  0.5684600  0.1087400  0.1677200  )
        67           O   tau(  67) = (  0.6789100  0.6484700  0.5087000  )
        68           O   tau(  68) = (  0.6484700  0.6789100  0.0087000  )
        69           O   tau(  69) = (  0.3515300  0.3210900  0.9913000  )
        70           O   tau(  70) = (  0.3210900  0.3515300  0.4913000  )
        71           O   tau(  71) = (  0.9696400  0.2775000  0.5515400  )
        72           O   tau(  72) = (  0.2775000  0.9696400  0.0515400  )
        73           O   tau(  73) = (  0.7225000  0.0303600  0.9484600  )
        74           O   tau(  74) = (  0.0303600  0.7225000  0.4484600  )
        75           O   tau(  75) = (  0.1241300  0.1217900  0.8045200  )
        76           O   tau(  76) = (  0.1217900  0.1241300  0.3045200  )
        77           O   tau(  77) = (  0.8782100  0.8758700  0.6954800  )
        78           O   tau(  78) = (  0.8758700  0.8782100  0.1954800  )
        79           O   tau(  79) = (  0.2847500  0.9536300  0.5374800  )
        80           O   tau(  80) = (  0.9536300  0.2847500  0.0374800  )
        81           O   tau(  81) = (  0.0463700  0.7152500  0.9625200  )
        82           O   tau(  82) = (  0.7152500  0.0463700  0.4625200  )
        83           O   tau(  83) = (  0.8240000  0.4109200  0.8277300  )
        84           O   tau(  84) = (  0.4109200  0.8240000  0.3277300  )
        85           O   tau(  85) = (  0.5890800  0.1760000  0.6722700  )
        86           O   tau(  86) = (  0.1760000  0.5890800  0.1722700  )

     number of k points=     1  Marzari-Vanderbilt smearing, width (Ry)=  0.0147
                       cart. coord. in units 2pi/alat
        k(    1) = (   0.0000000   0.0000000   0.0000000), wk =   2.0000000

                       cryst. coord.
        k(    1) = (   0.0000000   0.0000000  -0.0000000), wk =   2.0000000

     Dense  grid:   200069 G-vectors     FFT dimensions: (  81,  81, 128)

     Dynamical RAM for                 wfc:       2.89 MB

     Dynamical RAM for     wfc (w. buffer):       2.89 MB

     Dynamical RAM for           str. fact:       0.51 MB

     Dynamical RAM for           local pot:       0.00 MB

     Dynamical RAM for          nlocal pot:      11.73 MB

     Dynamical RAM for                qrad:       3.86 MB

     Dynamical RAM for          rho,v,vnew:       1.28 MB

     Dynamical RAM for               rhoin:       0.43 MB

     Dynamical RAM for            rho*nmix:       2.04 MB

     Dynamical RAM for           G-vectors:       0.54 MB

     Dynamical RAM for          h,s,v(r/c):       3.03 MB

     Dynamical RAM for          <psi|beta>:       1.02 MB

     Dynamical RAM for                 psi:       5.79 MB

     Dynamical RAM for                hpsi:       5.79 MB

     Dynamical RAM for      wfcinit/wfcrot:       8.44 MB

     Estimated static dynamical RAM per process >      23.39 MB

     Estimated max dynamical RAM per process >      41.05 MB

     Estimated total dynamical RAM >     985.30 MB
 gcutm =    1624.8731223428922     

     Check: negative core charge=   -0.000008

     Initial potential from superposition of free atoms

     starting charge     303.9724, renormalised to     304.0000
     Starting wfcs are  228 randomized atomic wfcs

     total cpu time spent up to now is        1.5 secs

     per-process dynamical memory:    35.1 Mb

     Self-consistent Calculation

     iteration #  1     ecut=    70.82 Ry     beta= 0.40
     Davidson diagonalization with overlap

---- Real-time Memory Report at c_bands before calling an iterative solver
            72 MiB given to the printing process from OS
            34 MiB allocation reported by mallinfo(arena+hblkhd)
         36509 MiB available memory on the node where the printing process lives
------------------
     ethr =  1.00E-02,  avg # of iterations =  5.0

     total cpu time spent up to now is        2.3 secs

     total energy              =   -1586.56285183 Ry
     estimated scf accuracy    <      13.74502236 Ry

     iteration #  2     ecut=    70.82 Ry     beta= 0.40
     Davidson diagonalization with overlap

---- Real-time Memory Report at c_bands before calling an iterative solver
            79 MiB given to the printing process from OS
            37 MiB allocation reported by mallinfo(arena+hblkhd)
         36476 MiB available memory on the node where the printing process lives
------------------
     ethr =  4.52E-03,  avg # of iterations =  2.0

     total cpu time spent up to now is        2.9 secs

     total energy              =   -1588.72985796 Ry
     estimated scf accuracy    <       0.72748166 Ry

     iteration #  3     ecut=    70.82 Ry     beta= 0.40
     Davidson diagonalization with overlap

---- Real-time Memory Report at c_bands before calling an iterative solver
            79 MiB given to the printing process from OS
            37 MiB allocation reported by mallinfo(arena+hblkhd)
         36522 MiB available memory on the node where the printing process lives
------------------
     ethr =  2.39E-04,  avg # of iterations = 12.0

     total cpu time spent up to now is        3.9 secs

     total energy              =   -1588.74746957 Ry
     estimated scf accuracy    <       0.19637117 Ry

     iteration #  4     ecut=    70.82 Ry     beta= 0.40
     Davidson diagonalization with overlap

---- Real-time Memory Report at c_bands before calling an iterative solver
            79 MiB given to the printing process from OS
            38 MiB allocation reported by mallinfo(arena+hblkhd)
         36518 MiB available memory on the node where the printing process lives
------------------
     ethr =  6.46E-05,  avg # of iterations =  2.0

     total cpu time spent up to now is        4.4 secs

     total energy              =   -1588.75714252 Ry
     estimated scf accuracy    <       0.01165197 Ry

     iteration #  5     ecut=    70.82 Ry     beta= 0.40
     Davidson diagonalization with overlap

---- Real-time Memory Report at c_bands before calling an iterative solver
            79 MiB given to the printing process from OS
            38 MiB allocation reported by mallinfo(arena+hblkhd)
         36511 MiB available memory on the node where the printing process lives
------------------
     ethr =  3.83E-06,  avg # of iterations = 17.0

     total cpu time spent up to now is        5.6 secs

     total energy              =   -1588.75856691 Ry
     estimated scf accuracy    <       0.00070254 Ry

     iteration #  6     ecut=    70.82 Ry     beta= 0.40
     Davidson diagonalization with overlap

---- Real-time Memory Report at c_bands before calling an iterative solver
            80 MiB given to the printing process from OS
            38 MiB allocation reported by mallinfo(arena+hblkhd)
         36504 MiB available memory on the node where the printing process lives
------------------
     ethr =  2.31E-07,  avg # of iterations =  2.0

     total cpu time spent up to now is        6.2 secs

     total energy              =   -1588.75867281 Ry
     estimated scf accuracy    <       0.00012328 Ry

     iteration #  7     ecut=    70.82 Ry     beta= 0.40
     Davidson diagonalization with overlap

---- Real-time Memory Report at c_bands before calling an iterative solver
            80 MiB given to the printing process from OS
            38 MiB allocation reported by mallinfo(arena+hblkhd)
         36497 MiB available memory on the node where the printing process lives
------------------
     ethr =  4.06E-08,  avg # of iterations =  2.0

     total cpu time spent up to now is        6.7 secs

     total energy              =   -1588.75869907 Ry
     estimated scf accuracy    <       0.00001489 Ry

     iteration #  8     ecut=    70.82 Ry     beta= 0.40
     Davidson diagonalization with overlap

---- Real-time Memory Report at c_bands before calling an iterative solver
            80 MiB given to the printing process from OS
            39 MiB allocation reported by mallinfo(arena+hblkhd)
         36491 MiB available memory on the node where the printing process lives
------------------
     ethr =  4.90E-09,  avg # of iterations =  2.0

     total cpu time spent up to now is        7.3 secs

     total energy              =   -1588.75870274 Ry
     estimated scf accuracy    <       0.00000131 Ry

     iteration #  9     ecut=    70.82 Ry     beta= 0.40
     Davidson diagonalization with overlap

---- Real-time Memory Report at c_bands before calling an iterative solver
            81 MiB given to the printing process from OS
            39 MiB allocation reported by mallinfo(arena+hblkhd)
         36486 MiB available memory on the node where the printing process lives
------------------
     ethr =  4.32E-10,  avg # of iterations =  2.0

     total cpu time spent up to now is        7.9 secs

     total energy              =   -1588.75870285 Ry
     estimated scf accuracy    <       0.00000021 Ry

     iteration # 10     ecut=    70.82 Ry     beta= 0.40
     Davidson diagonalization with overlap

---- Real-time Memory Report at c_bands before calling an iterative solver
            81 MiB given to the printing process from OS
            39 MiB allocation reported by mallinfo(arena+hblkhd)
         36479 MiB available memory on the node where the printing process lives
------------------
     ethr =  6.81E-11,  avg # of iterations =  2.0

     total cpu time spent up to now is        8.5 secs

     total energy              =   -1588.75870291 Ry
     estimated scf accuracy    <       0.00000007 Ry

     iteration # 11     ecut=    70.82 Ry     beta= 0.40
     Davidson diagonalization with overlap

---- Real-time Memory Report at c_bands before calling an iterative solver
            81 MiB given to the printing process from OS
            39 MiB allocation reported by mallinfo(arena+hblkhd)
         36478 MiB available memory on the node where the printing process lives
------------------
     ethr =  2.32E-11,  avg # of iterations =  2.0

     total cpu time spent up to now is        9.1 secs

     End of self-consistent calculation

          k = 0.0000 0.0000 0.0000 ( 24991 PWs)   bands (ev):

   -48.3763 -48.3762 -48.3396 -48.3395 -21.0485 -21.0415 -20.9890 -20.9779
   -20.5731 -20.5579 -20.5577 -20.5500 -20.5132 -20.4699 -20.4495 -20.4469
   -20.4221 -20.2930 -20.2765 -20.2543 -20.2470 -20.2303 -20.1998 -20.1952
   -20.1754 -20.1746 -20.1637 -20.0747 -19.9979 -19.9874 -19.9598 -19.9126
   -19.7762 -19.6600 -19.6134 -19.5509 -19.1302 -19.0118 -18.7449 -18.7423
   -18.0842 -18.0503 -17.5862 -17.4848 -17.2097 -17.2094 -16.7717 -16.7358
   -16.3486 -16.3209  -8.1323  -8.0914  -8.0808  -8.0600  -7.9486  -7.9114
    -7.9110  -7.8877  -7.8522  -7.8493  -7.8374  -7.8351  -7.7604  -7.7594
    -7.7366  -7.6439  -7.6037  -7.5895  -7.5528  -7.4617  -7.3032  -7.1510
    -6.8977  -6.6215  -5.3871  -5.2805  -5.2136  -5.1642  -5.0445  -4.7941
    -4.7798  -4.7768  -4.3811  -4.2769  -4.2744  -4.2700  -3.9331  -3.9250
    -3.9083  -3.8523  -3.8018  -3.7539  -3.7352  -3.6962  -3.5971  -3.5870
    -3.5465  -3.4953  -3.4857  -3.3928  -3.3554  -3.2903  -3.2709  -3.1488
    -3.1230  -3.0799  -2.6982  -2.5647  -2.4930  -2.4230  -2.1164  -2.0761
    -1.9370  -1.8801  -1.8374  -1.8329  -1.6709  -1.6412  -1.5513  -1.5209
    -1.5057  -1.4137  -1.3972  -1.3666  -1.3504  -1.2984  -1.2960  -1.2357
    -1.2306  -1.1715  -1.1467  -1.0976  -1.0527  -0.9424  -0.7367  -0.7366
    -0.6934  -0.6689  -0.5993  -0.4857  -0.4316  -0.4071  -0.3525  -0.2136
    -0.2071  -0.1406   0.1365   0.1681   0.3735   0.3779   0.5529   0.6481
     5.6309   7.0376   7.1581   7.6736   7.9188   8.0559   8.2331   8.4128
     8.4644   8.6448   8.7048   8.9718   9.0350   9.0788   9.2228   9.4831
     9.6231   9.7875   9.8248   9.8958  10.0595  10.0918  10.3222  10.3350
    10.6505  10.6586  10.8131  10.8875  10.9932  11.1012

     occupation numbers 
     1.0000   1.0000   1.0000   1.0000   1.0000   1.0000   1.0000   1.0000
     1.0000   1.0000   1.0000   1.0000   1.0000   1.0000   1.0000   1.0000
     1.0000   1.0000   1.0000   1.0000   1.0000   1.0000   1.0000   1.0000
     1.0000   1.0000   1.0000   1.0000   1.0000   1.0000   1.0000   1.0000
     1.0000   1.0000   1.0000   1.0000   1.0000   1.0000   1.0000   1.0000
     1.0000   1.0000   1.0000   1.0000   1.0000   1.0000   1.0000   1.0000
     1.0000   1.0000   1.0000   1.0000   1.0000   1.0000   1.0000   1.0000
     1.0000   1.0000   1.0000   1.0000   1.0000   1.0000   1.0000   1.0000
     1.0000   1.0000   1.0000   1.0000   1.0000   1.0000   1.0000   1.0000
     1.0000   1.0000   1.0000   1.0000   1.0000   1.0000   1.0000   1.0000
     1.0000   1.0000   1.0000   1.0000   1.0000   1.0000   1.0000   1.0000
     1.0000   1.0000   1.0000   1.0000   1.0000   1.0000   1.0000   1.0000
     1.0000   1.0000   1.0000   1.0000   1.0000   1.0000   1.0000   1.0000
     1.0000   1.0000   1.0000   1.0000   1.0000   1.0000   1.0000   1.0000
     1.0000   1.0000   1.0000   1.0000   1.0000   1.0000   1.0000   1.0000
     1.0000   1.0000   1.0000   1.0000   1.0000   1.0000   1.0000   1.0000
     1.0000   1.0000   1.0000   1.0000   1.0000   1.0000   1.0000   1.0000
     1.0000   1.0000   1.0000   1.0000   1.0000   1.0000   1.0000   1.0000
     1.0000   1.0000   1.0000   1.0000   1.0000   1.0000   1.0000   1.0000
     0.0000   0.0000   0.0000   0.0000   0.0000   0.0000   0.0000   0.0000
     0.0000   0.0000   0.0000   0.0000   0.0000   0.0000   0.0000   0.0000
     0.0000   0.0000   0.0000   0.0000   0.0000   0.0000   0.0000   0.0000
     0.0000   0.0000   0.0000   0.0000   0.0000   0.0000

     the Fermi energy is     3.1829 ev

!    total energy              =   -1588.75870292 Ry
     estimated scf accuracy    <          8.9E-10 Ry
     smearing contrib. (-TS)   =       0.00000000 Ry
     internal energy E=F+TS    =   -1588.75870292 Ry

     The total energy is F=E-TS. E is the sum of the following terms:
     one-electron contribution =   -1062.25593075 Ry
     hartree contribution      =     653.98567077 Ry
     xc contribution           =    -397.06060397 Ry
     ewald contribution        =    -783.42783896 Ry

     convergence has been achieved in  11 iterations

     Forces acting on atoms (cartesian axes, Ry/au):

     atom    1 type  1   force =    -0.01812654    0.00155608    0.00360855
     atom    2 type  1   force =    -0.01812654   -0.00155608    0.00360855
     atom    3 type  1   force =     0.01812654    0.00155608   -0.00360855
     atom    4 type  1   force =     0.01812654   -0.00155608   -0.00360855
     atom    5 type  1   force =    -0.01117409   -0.01595963   -0.02551764
     atom    6 type  1   force =    -0.01117409    0.01595963   -0.02551764
     atom    7 type  1   force =     0.01117409   -0.01595963    0.02551764
     atom    8 type  1   force =     0.01117409    0.01595963    0.02551764
     atom    9 type  2   force =    -0.39890740   -0.04641636   -0.16133656
     atom   10 type  2   force =    -0.39890740    0.04641636   -0.16133656
     atom   11 type  2   force =     0.39890740   -0.04641636    0.16133656
     atom   12 type  2   force =     0.39890740    0.04641636    0.16133656
     atom   13 type  2   force =    -0.24124022   -0.10457173    0.32395077
     atom   14 type  2   force =    -0.24124022    0.10457173    0.32395077
     atom   15 type  2   force =     0.24124022   -0.10457173   -0.32395077
     atom   16 type  2   force =     0.24124022    0.10457173   -0.32395077
     atom   17 type  2   force =    -0.24652811    0.13345477    0.04570008
     atom   18 type  2   force =    -0.24652811   -0.13345477    0.04570008
     atom   19 type  2   force =     0.24652811    0.13345477   -0.04570008
     atom   20 type  2   force =     0.24652811   -0.13345477   -0.04570008
     atom   21 type  2   force =    -0.03630276    0.23195637   -0.29128011
     atom   22 type  2   force =    -0.03630276   -0.23195637   -0.29128011
     atom   23 type  2   force =     0.03630276    0.23195637    0.29128011
     atom   24 type  2   force =     0.03630276   -0.23195637    0.29128011
     atom   25 type  2   force =    -0.41675052   -0.15781650    0.13336244
     atom   26 type  2   force =    -0.41675052    0.15781650    0.13336244
     atom   27 type  2   force =     0.41675052   -0.15781650   -0.13336244
     atom   28 type  2   force =     0.41675052    0.15781650   -0.13336244
     atom   29 type  2   force =     0.01118934    0.51247981    0.04346696
     atom   30 type  2   force =     0.01118934   -0.51247981    0.04346696
     atom   31 type  2   force =    -0.01118934    0.51247981   -0.04346696
     atom   32 type  2   force =    -0.01118934   -0.51247981   -0.04346696
     atom   33 type  2   force =     0.13506513    0.10324795    0.25254735
     atom   34 type  2   force =     0.13506513   -0.10324795    0.25254735
     atom   35 type  2   force =    -0.13506513    0.10324795   -0.25254735
     atom   36 type  2   force =    -0.13506513   -0.10324795   -0.25254735
     atom   37 type  2   force =    -0.29643912   -0.12155919    0.05661375
     atom   38 type  2   force =    -0.29643912    0.12155919    0.05661375
     atom   39 type  2   force =     0.29643912   -0.12155919   -0.05661375
     atom   40 type  2   force =     0.29643912    0.12155919   -0.05661375
     atom   41 type  2   force =     0.09486963   -0.36560831    0.00404692
     atom   42 type  2   force =     0.09486963    0.36560831    0.00404692
     atom   43 type  2   force =    -0.09486963   -0.36560831   -0.00404692
     atom   44 type  2   force =    -0.09486963    0.36560831   -0.00404692
     atom   45 type  2   force =    -0.00794440    0.13894906   -0.32855605
     atom   46 type  2   force =    -0.00794440   -0.13894906   -0.32855605
     atom   47 type  2   force =     0.00794440    0.13894906    0.32855605
     atom   48 type  2   force =     0.00794440   -0.13894906    0.32855605
     atom   49 type  3   force =     0.00000000    0.00000000    0.00000000
     atom   50 type  3   force =     0.00000000    0.00000000    0.00000000
     atom   51 type  3   force =     0.00000000   -0.00334484    0.00000000
     atom   52 type  3   force =     0.00000000    0.00334484   -0.00000000
     atom   53 type  4   force =     0.00000000   -0.00521570    0.00000000
     atom   54 type  4   force =     0.00000000    0.00521570   -0.00000000
     atom   55 type  4   force =     0.01262437    0.00240941   -0.00233074
     atom   56 type  4   force =     0.01262437   -0.00240941   -0.00233074
     atom   57 type  4   force =    -0.01262437    0.00240941    0.00233074
     atom   58 type  4   force =    -0.01262437   -0.00240941    0.00233074
     atom   59 type  4   force =    -0.00891593    0.01101239   -0.00802588
     atom   60 type  4   force =    -0.00891593   -0.01101239   -0.00802588
     atom   61 type  4   force =     0.00891593    0.01101239    0.00802588
     atom   62 type  4   force =     0.00891593   -0.01101239    0.00802588
     atom   63 type  4   force =    -0.38632795    0.03757896   -0.16543143
     atom   64 type  4   force =    -0.38632795   -0.03757896   -0.16543143
     atom   65 type  4   force =     0.38632795    0.03757896    0.16543143
     atom   66 type  4   force =     0.38632795   -0.03757896    0.16543143
     atom   67 type  4   force =     0.24701641   -0.09216922   -0.30192159
     atom   68 type  4   force =     0.24701641    0.09216922   -0.30192159
     atom   69 type  4   force =    -0.24701641   -0.09216922    0.30192159
     atom   70 type  4   force =    -0.24701641    0.09216922    0.30192159
     atom   71 type  4   force =    -0.27885844    0.09758894   -0.24385736
     atom   72 type  4   force =    -0.27885844   -0.09758894   -0.24385736
     atom   73 type  4   force =     0.27885844    0.09758894    0.24385736
     atom   74 type  4   force =     0.27885844   -0.09758894    0.24385736
     atom   75 type  4   force =    -0.42618269   -0.35293061    0.09078193
     atom   76 type  4   force =    -0.42618269    0.35293061    0.09078193
     atom   77 type  4   force =     0.42618269   -0.35293061   -0.09078193
     atom   78 type  4   force =     0.42618269    0.35293061   -0.09078193
     atom   79 type  4   force =    -0.16154578    0.01820864    0.30924038
     atom   80 type  4   force =    -0.16154578   -0.01820864    0.30924038
     atom   81 type  4   force =     0.16154578    0.01820864   -0.30924038
     atom   82 type  4   force =     0.16154578   -0.01820864   -0.30924038
     atom   83 type  4   force =     0.10065975    0.22322516    0.33106007
     atom   84 type  4   force =     0.10065975   -0.22322516    0.33106007
     atom   85 type  4   force =    -0.10065975    0.22322516   -0.33106007
     atom   86 type  4   force =    -0.10065975   -0.22322516   -0.33106007
     The non-local contrib.  to forces
     atom    1 type  1   force =     0.00389805    0.05776319   -0.03063170
     atom    2 type  1   force =     0.00389805   -0.05776319   -0.03063170
     atom    3 type  1   force =    -0.00389805    0.05776319    0.03063170
     atom    4 type  1   force =    -0.00389805   -0.05776319    0.03063170
     atom    5 type  1   force =     0.01530669    0.02481112    0.02303244
     atom    6 type  1   force =     0.01530669   -0.02481112    0.02303244
     atom    7 type  1   force =    -0.01530669    0.02481112   -0.02303244
     atom    8 type  1   force =    -0.01530669   -0.02481112   -0.02303244
     atom    9 type  2   force =     0.34223288    0.04103123    0.13701470
     atom   10 type  2   force =     0.34223288   -0.04103123    0.13701470
     atom   11 type  2   force =    -0.34223288    0.04103123   -0.13701470
     atom   12 type  2   force =    -0.34223288   -0.04103123   -0.13701470
     atom   13 type  2   force =     0.21846581    0.08579611   -0.27688485
     atom   14 type  2   force =     0.21846581   -0.08579611   -0.27688485
     atom   15 type  2   force =    -0.21846581    0.08579611    0.27688485
     atom   16 type  2   force =    -0.21846581   -0.08579611    0.27688485
     atom   17 type  2   force =     0.28048863   -0.14482222   -0.04247792
     atom   18 type  2   force =     0.28048863    0.14482222   -0.04247792
     atom   19 type  2   force =    -0.28048863   -0.14482222    0.04247792
     atom   20 type  2   force =    -0.28048863    0.14482222    0.04247792
     atom   21 type  2   force =     0.04428885   -0.21055510    0.27498378
     atom   22 type  2   force =     0.04428885    0.21055510    0.27498378
     atom   23 type  2   force =    -0.04428885   -0.21055510   -0.27498378
     atom   24 type  2   force =    -0.04428885    0.21055510   -0.27498378
     atom   25 type  2   force =     0.34802218    0.09606538   -0.10829706
     atom   26 type  2   force =     0.34802218   -0.09606538   -0.10829706
     atom   27 type  2   force =    -0.34802218    0.09606538    0.10829706
     atom   28 type  2   force =    -0.34802218   -0.09606538    0.10829706
     atom   29 type  2   force =    -0.03904709   -0.39134409   -0.02253780
     atom   30 type  2   force =    -0.03904709    0.39134409   -0.02253780
     atom   31 type  2   force =     0.03904709   -0.39134409    0.02253780
     atom   32 type  2   force =     0.03904709    0.39134409    0.02253780
     atom   33 type  2   force =    -0.12680230   -0.09982089   -0.27676463
     atom   34 type  2   force =    -0.12680230    0.09982089   -0.27676463
     atom   35 type  2   force =     0.12680230   -0.09982089    0.27676463
     atom   36 type  2   force =     0.12680230    0.09982089    0.27676463
     atom   37 type  2   force =     0.30228516    0.12177060   -0.07543032
     atom   38 type  2   force =     0.30228516   -0.12177060   -0.07543032
     atom   39 type  2   force =    -0.30228516    0.12177060    0.07543032
     atom   40 type  2   force =    -0.30228516   -0.12177060    0.07543032
     atom   41 type  2   force =    -0.09066004    0.33871376   -0.02285032
     atom   42 type  2   force =    -0.09066004   -0.33871376   -0.02285032
     atom   43 type  2   force =     0.09066004    0.33871376    0.02285032
     atom   44 type  2   force =     0.09066004   -0.33871376    0.02285032
     atom   45 type  2   force =     0.01424747   -0.11846172    0.32265562
     atom   46 type  2   force =     0.01424747    0.11846172    0.32265562
     atom   47 type  2   force =    -0.01424747   -0.11846172   -0.32265562
     atom   48 type  2   force =    -0.01424747    0.11846172   -0.32265562
     atom   49 type  3   force =     0.00000000    0.00000000    0.00000000
     atom   50 type  3   force =     0.00000000    0.00000000    0.00000000
     atom   51 type  3   force =     0.00000000    0.02155679   -0.00000000
     atom   52 type  3   force =     0.00000000   -0.02155679    0.00000000
     atom   53 type  4   force =     0.00000000    1.25683063   -0.00000000
     atom   54 type  4   force =     0.00000000   -1.25683063    0.00000000
     atom   55 type  4   force =    -1.21973948   -0.13746040    0.46210232
     atom   56 type  4   force =    -1.21973948    0.13746040    0.46210232
     atom   57 type  4   force =     1.21973948   -0.13746040   -0.46210232
     atom   58 type  4   force =     1.21973948    0.13746040   -0.46210232
     atom   59 type  4   force =    -0.86997944   -0.34841335    0.79194868
     atom   60 type  4   force =    -0.86997944    0.34841335    0.79194868
     atom   61 type  4   force =     0.86997944   -0.34841335   -0.79194868
     atom   62 type  4   force =     0.86997944    0.34841335   -0.79194868
     atom   63 type  4   force =     0.85201817    0.41338073    1.32687496
     atom   64 type  4   force =     0.85201817   -0.41338073    1.32687496
     atom   65 type  4   force =    -0.85201817    0.41338073   -1.32687496
     atom   66 type  4   force =    -0.85201817   -0.41338073   -1.32687496
     atom   67 type  4   force =    -1.69767097   -0.25677101    0.27431545
     atom   68 type  4   force =    -1.69767097    0.25677101    0.27431545
     atom   69 type  4   force =     1.69767097   -0.25677101   -0.27431545
     atom   70 type  4   force =     1.69767097    0.25677101   -0.27431545
     atom   71 type  4   force =     1.58554230   -0.18299831    1.09329299
     atom   72 type  4   force =     1.58554230    0.18299831    1.09329299
     atom   73 type  4   force =    -1.58554230   -0.18299831   -1.09329299
     atom   74 type  4   force =    -1.58554230    0.18299831   -1.09329299
     atom   75 type  4   force =     1.62109726    1.21882288   -0.41199160
     atom   76 type  4   force =     1.62109726   -1.21882288   -0.41199160
     atom   77 type  4   force =    -1.62109726    1.21882288    0.41199160
     atom   78 type  4   force =    -1.62109726   -1.21882288    0.41199160
     atom   79 type  4   force =     0.89086428   -0.17816214   -1.76320232
     atom   80 type  4   force =     0.89086428    0.17816214   -1.76320232
     atom   81 type  4   force =    -0.89086428   -0.17816214    1.76320232
     atom   82 type  4   force =    -0.89086428    0.17816214    1.76320232
     atom   83 type  4   force =    -0.55244600   -1.03805520   -1.67391521
     atom   84 type  4   force =    -0.55244600    1.03805520   -1.67391521
     atom   85 type  4   force =     0.55244600   -1.03805520    1.67391521
     atom   86 type  4   force =     0.55244600    1.03805520    1.67391521
     The ionic contribution  to forces
     atom    1 type  1   force =     1.67468650   -0.24328632   -1.07367474
     atom    2 type  1   force =     1.67468650    0.24328632   -1.07367474
     atom    3 type  1   force =    -1.67468650   -0.24328632    1.07367474
     atom    4 type  1   force =    -1.67468650    0.24328632    1.07367474
     atom    5 type  1   force =     1.10823637    1.53267733    1.02276578
     atom    6 type  1   force =     1.10823637   -1.53267733    1.02276578
     atom    7 type  1   force =    -1.10823637    1.53267733   -1.02276578
     atom    8 type  1   force =    -1.10823637   -1.53267733   -1.02276578
     atom    9 type  2   force =    -4.59898404   -0.82880391   -1.25541375
     atom   10 type  2   force =    -4.59898404    0.82880391   -1.25541375
     atom   11 type  2   force =     4.59898404   -0.82880391    1.25541375
     atom   12 type  2   force =     4.59898404    0.82880391    1.25541375
     atom   13 type  2   force =    -2.04059121   -1.14748584    3.23524929
     atom   14 type  2   force =    -2.04059121    1.14748584    3.23524929
     atom   15 type  2   force =     2.04059121   -1.14748584   -3.23524929
     atom   16 type  2   force =     2.04059121    1.14748584   -3.23524929
     atom   17 type  2   force =    -3.73108701    1.57611812    0.70062483
     atom   18 type  2   force =    -3.73108701   -1.57611812    0.70062483
     atom   19 type  2   force =     3.73108701    1.57611812   -0.70062483
     atom   20 type  2   force =     3.73108701   -1.57611812   -0.70062483
     atom   21 type  2   force =    -0.81743286    2.91764228   -3.05499752
     atom   22 type  2   force =    -0.81743286   -2.91764228   -3.05499752
     atom   23 type  2   force =     0.81743286    2.91764228    3.05499752
     atom   24 type  2   force =     0.81743286   -2.91764228    3.05499752
     atom   25 type  2   force =    -4.25835045   -1.00350294    1.03101351
     atom   26 type  2   force =    -4.25835045    1.00350294    1.03101351
     atom   27 type  2   force =     4.25835045   -1.00350294   -1.03101351
     atom   28 type  2   force =     4.25835045    1.00350294   -1.03101351
     atom   29 type  2   force =     0.73795799    4.57830847    0.64888394
     atom   30 type  2   force =     0.73795799   -4.57830847    0.64888394
     atom   31 type  2   force =    -0.73795799    4.57830847   -0.64888394
     atom   32 type  2   force =    -0.73795799   -4.57830847   -0.64888394
     atom   33 type  2   force =     1.05739515    0.81084533    3.23753522
     atom   34 type  2   force =     1.05739515   -0.81084533    3.23753522
     atom   35 type  2   force =    -1.05739515    0.81084533   -3.23753522
     atom   36 type  2   force =    -1.05739515   -0.81084533   -3.23753522
     atom   37 type  2   force =    -4.10785779   -1.44237350    1.17124270
     atom   38 type  2   force =    -4.10785779    1.44237350    1.17124270
     atom   39 type  2   force =     4.10785779   -1.44237350   -1.17124270
     atom   40 type  2   force =     4.10785779    1.44237350   -1.17124270
     atom   41 type  2   force =     0.93484150   -4.02511078    0.13421316
     atom   42 type  2   force =     0.93484150    4.02511078    0.13421316
     atom   43 type  2   force =    -0.93484150   -4.02511078   -0.13421316
     atom   44 type  2   force =    -0.93484150    4.02511078   -0.13421316
     atom   45 type  2   force =    -0.00918865    1.16911727   -3.92669687
     atom   46 type  2   force =    -0.00918865   -1.16911727   -3.92669687
     atom   47 type  2   force =     0.00918865    1.16911727    3.92669687
     atom   48 type  2   force =     0.00918865   -1.16911727    3.92669687
     atom   49 type  3   force =     0.00000000    0.00000000    0.00000000
     atom   50 type  3   force =    -0.00000000   -0.00000000   -0.00000000
     atom   51 type  3   force =    -0.00000000   -2.18075110    0.00000000
     atom   52 type  3   force =    -0.00000000    2.18075110    0.00000000
     atom   53 type  4   force =     0.00000000   -9.51952359   -0.00000000
     atom   54 type  4   force =     0.00000000    9.51952359    0.00000000
     atom   55 type  4   force =     8.40725312    2.87649205   -0.80299870
     atom   56 type  4   force =     8.40725312   -2.87649205   -0.80299870
     atom   57 type  4   force =    -8.40725312    2.87649205    0.80299870
     atom   58 type  4   force =    -8.40725312   -2.87649205    0.80299870
     atom   59 type  4   force =     3.16729238    4.21528215   -5.92167949
     atom   60 type  4   force =     3.16729238   -4.21528215   -5.92167949
     atom   61 type  4   force =    -3.16729238    4.21528215    5.92167949
     atom   62 type  4   force =    -3.16729238   -4.21528215    5.92167949
     atom   63 type  4   force =     2.16109417   -3.55715014   -6.50902172
     atom   64 type  4   force =     2.16109417    3.55715014   -6.50902172
     atom   65 type  4   force =    -2.16109417   -3.55715014    6.50902172
     atom   66 type  4   force =    -2.16109417    3.55715014    6.50902172
     atom   67 type  4   force =     6.91191114    2.48270314    1.04507490
     atom   68 type  4   force =     6.91191114   -2.48270314    1.04507490
     atom   69 type  4   force =    -6.91191114    2.48270314   -1.04507490
     atom   70 type  4   force =    -6.91191114   -2.48270314   -1.04507490
     atom   71 type  4   force =    -0.86901173   -1.78307964   -3.23055837
     atom   72 type  4   force =    -0.86901173    1.78307964   -3.23055837
     atom   73 type  4   force =     0.86901173   -1.78307964    3.23055837
     atom   74 type  4   force =     0.86901173    1.78307964    3.23055837
     atom   75 type  4   force =    -1.68107849   -2.01632675    2.94021999
     atom   76 type  4   force =    -1.68107849    2.01632675    2.94021999
     atom   77 type  4   force =     1.68107849   -2.01632675   -2.94021999
     atom   78 type  4   force =     1.68107849    2.01632675   -2.94021999
     atom   79 type  4   force =     0.65774173    1.03243719    3.81969218
     atom   80 type  4   force =     0.65774173   -1.03243719    3.81969218
     atom   81 type  4   force =    -0.65774173    1.03243719   -3.81969218
     atom   82 type  4   force =    -0.65774173   -1.03243719   -3.81969218
     atom   83 type  4   force =     2.23181647    0.51252856    3.97681135
     atom   84 type  4   force =     2.23181647   -0.51252856    3.97681135
     atom   85 type  4   force =    -2.23181647    0.51252856   -3.97681135
     atom   86 type  4   force =    -2.23181647   -0.51252856   -3.97681135
     The local contribution  to forces
     atom    1 type  1   force =    -1.69664929    0.19041329    1.10644616
     atom    2 type  1   force =    -1.69664959   -0.19041386    1.10644606
     atom    3 type  1   force =     1.69664943    0.19041309   -1.10644652
     atom    4 type  1   force =     1.69664937   -0.19041361   -1.10644627
     atom    5 type  1   force =    -1.13419876   -1.57206901   -1.07001526
     atom    6 type  1   force =    -1.13419915    1.57206880   -1.07001514
     atom    7 type  1   force =     1.13419867   -1.57206872    1.07001506
     atom    8 type  1   force =     1.13419862    1.57206877    1.07001523
     atom    9 type  2   force =     3.85784244    0.74135603    0.95706261
     atom   10 type  2   force =     3.85784229   -0.74135604    0.95706253
     atom   11 type  2   force =    -3.85784249    0.74135610   -0.95706263
     atom   12 type  2   force =    -3.85784237   -0.74135608   -0.95706255
     atom   13 type  2   force =     1.58088598    0.95711765   -2.63441295
     atom   14 type  2   force =     1.58088605   -0.95711771   -2.63441305
     atom   15 type  2   force =    -1.58088602    0.95711769    2.63441309
     atom   16 type  2   force =    -1.58088600   -0.95711764    2.63441295
     atom   17 type  2   force =     3.20407010   -1.29784065   -0.61244626
     atom   18 type  2   force =     3.20406982    1.29784053   -0.61244627
     atom   19 type  2   force =    -3.20406996   -1.29784058    0.61244628
     atom   20 type  2   force =    -3.20407003    1.29784064    0.61244629
     atom   21 type  2   force =     0.73684165   -2.47513040    2.48873315
     atom   22 type  2   force =     0.73684170    2.47513058    2.48873340
     atom   23 type  2   force =    -0.73684167   -2.47513053   -2.48873334
     atom   24 type  2   force =    -0.73684168    2.47513049   -2.48873325
     atom   25 type  2   force =     3.49357836    0.74962051   -0.78935422
     atom   26 type  2   force =     3.49357816   -0.74962051   -0.78935420
     atom   27 type  2   force =    -3.49357843    0.74962058    0.78935427
     atom   28 type  2   force =    -3.49357847   -0.74962056    0.78935427
     atom   29 type  2   force =    -0.68772215   -3.67448483   -0.58287902
     atom   30 type  2   force =    -0.68772216    3.67448488   -0.58287903
     atom   31 type  2   force =     0.68772215   -3.67448478    0.58287905
     atom   32 type  2   force =     0.68772211    3.67448456    0.58287900
     atom   33 type  2   force =    -0.79552762   -0.60777675   -2.70822319
     atom   34 type  2   force =    -0.79552763    0.60777670   -2.70822311
     atom   35 type  2   force =     0.79552770   -0.60777675    2.70822331
     atom   36 type  2   force =     0.79552767    0.60777676    2.70822326
     atom   37 type  2   force =     3.50913286    1.19904342   -1.03919852
     atom   38 type  2   force =     3.50913275   -1.19904338   -1.03919850
     atom   39 type  2   force =    -3.50913296    1.19904349    1.03919858
     atom   40 type  2   force =    -3.50913286   -1.19904343    1.03919850
     atom   41 type  2   force =    -0.74931206    3.32078951   -0.10731620
     atom   42 type  2   force =    -0.74931198   -3.32078924   -0.10731622
     atom   43 type  2   force =     0.74931195    3.32078903    0.10731613
     atom   44 type  2   force =     0.74931196   -3.32078913    0.10731617
     atom   45 type  2   force =    -0.01300356   -0.91170580    3.27548491
     atom   46 type  2   force =    -0.01300357    0.91170582    3.27548496
     atom   47 type  2   force =     0.01300351   -0.91170588   -3.27548535
     atom   48 type  2   force =     0.01300356    0.91170583   -3.27548511
     atom   49 type  3   force =    -0.00000007   -0.00000015    0.00000001
     atom   50 type  3   force =     0.00000006   -0.00000006   -0.00000006
     atom   51 type  3   force =    -0.00000019    2.15585371    0.00000017
     atom   52 type  3   force =    -0.00000011   -2.15585375   -0.00000014
     atom   53 type  4   force =     0.00000020    8.29062525   -0.00000016
     atom   54 type  4   force =    -0.00000040   -8.29062549   -0.00000021
     atom   55 type  4   force =    -7.20650453   -2.74123202    0.34845689
     atom   56 type  4   force =    -7.20650475    2.74123180    0.34845606
     atom   57 type  4   force =     7.20650433   -2.74123218   -0.34845645
     atom   58 type  4   force =     7.20650443    2.74123205   -0.34845663
     atom   59 type  4   force =    -2.32763720   -3.86549584    5.14336142
     atom   60 type  4   force =    -2.32763742    3.86549614    5.14336127
     atom   61 type  4   force =     2.32763850   -3.86549602   -5.14336131
     atom   62 type  4   force =     2.32763757    3.86549576   -5.14336114
     atom   63 type  4   force =    -3.38895567    3.19284822    5.04614862
     atom   64 type  4   force =    -3.38895535   -3.19284874    5.04614879
     atom   65 type  4   force =     3.38895551    3.19284798   -5.04614892
     atom   66 type  4   force =     3.38895564   -3.19284824   -5.04614860
     atom   67 type  4   force =    -5.00197484   -2.32683053   -1.62255817
     atom   68 type  4   force =    -5.00197555    2.32683025   -1.62255755
     atom   69 type  4   force =     5.00197475   -2.32683035    1.62255799
     atom   70 type  4   force =     5.00197520    2.32683060    1.62255804
     atom   71 type  4   force =    -0.96368157    2.06176384    1.91357964
     atom   72 type  4   force =    -0.96368125   -2.06176382    1.91357950
     atom   73 type  4   force =     0.96368141    2.06176403   -1.91357945
     atom   74 type  4   force =     0.96368131   -2.06176357   -1.91357965
     atom   75 type  4   force =    -0.33999026    0.46377392   -2.44433909
     atom   76 type  4   force =    -0.33999033   -0.46377361   -2.44433925
     atom   77 type  4   force =     0.33999040    0.46377362    2.44433941
     atom   78 type  4   force =     0.33999006   -0.46377393    2.44433915
     atom   79 type  4   force =    -1.69142247   -0.84029674   -1.78226994
     atom   80 type  4   force =    -1.69142273    0.84029677   -1.78226992
     atom   81 type  4   force =     1.69142242   -0.84029698    1.78226985
     atom   82 type  4   force =     1.69142245    0.84029690    1.78227000
     atom   83 type  4   force =    -1.58976119    0.72875239   -2.00394225
     atom   84 type  4   force =    -1.58976123   -0.72875239   -2.00394205
     atom   85 type  4   force =     1.58976103    0.72875288    2.00394191
     atom   86 type  4   force =     1.58976129   -0.72875239    2.00394159
     The core correction contribution to forces
     atom    1 type  1   force =    -0.00006064   -0.00333392    0.00146681
     atom    2 type  1   force =    -0.00006065    0.00333387    0.00146681
     atom    3 type  1   force =     0.00006065   -0.00333393   -0.00146686
     atom    4 type  1   force =     0.00006063    0.00333390   -0.00146682
     atom    5 type  1   force =    -0.00051706   -0.00137925   -0.00130023
     atom    6 type  1   force =    -0.00051705    0.00137924   -0.00130022
     atom    7 type  1   force =     0.00051703   -0.00137924    0.00130023
     atom    8 type  1   force =     0.00051705    0.00137924    0.00130022
     atom    9 type  2   force =     0.00000000    0.00000000    0.00000000
     atom   10 type  2   force =     0.00000000    0.00000000    0.00000000
     atom   11 type  2   force =     0.00000000    0.00000000    0.00000000
     atom   12 type  2   force =     0.00000000    0.00000000    0.00000000
     atom   13 type  2   force =     0.00000000    0.00000000    0.00000000
     atom   14 type  2   force =     0.00000000    0.00000000    0.00000000
     atom   15 type  2   force =     0.00000000    0.00000000    0.00000000
     atom   16 type  2   force =     0.00000000    0.00000000    0.00000000
     atom   17 type  2   force =     0.00000000    0.00000000    0.00000000
     atom   18 type  2   force =     0.00000000    0.00000000    0.00000000
     atom   19 type  2   force =     0.00000000    0.00000000    0.00000000
     atom   20 type  2   force =     0.00000000    0.00000000    0.00000000
     atom   21 type  2   force =     0.00000000    0.00000000    0.00000000
     atom   22 type  2   force =     0.00000000    0.00000000    0.00000000
     atom   23 type  2   force =     0.00000000    0.00000000    0.00000000
     atom   24 type  2   force =     0.00000000    0.00000000    0.00000000
     atom   25 type  2   force =     0.00000000    0.00000000    0.00000000
     atom   26 type  2   force =     0.00000000    0.00000000    0.00000000
     atom   27 type  2   force =     0.00000000    0.00000000    0.00000000
     atom   28 type  2   force =     0.00000000    0.00000000    0.00000000
     atom   29 type  2   force =     0.00000000    0.00000000    0.00000000
     atom   30 type  2   force =     0.00000000    0.00000000    0.00000000
     atom   31 type  2   force =     0.00000000    0.00000000    0.00000000
     atom   32 type  2   force =     0.00000000    0.00000000    0.00000000
     atom   33 type  2   force =     0.00000000    0.00000000    0.00000000
     atom   34 type  2   force =     0.00000000    0.00000000    0.00000000
     atom   35 type  2   force =     0.00000000    0.00000000    0.00000000
     atom   36 type  2   force =     0.00000000    0.00000000    0.00000000
     atom   37 type  2   force =     0.00000000    0.00000000    0.00000000
     atom   38 type  2   force =     0.00000000    0.00000000    0.00000000
     atom   39 type  2   force =     0.00000000    0.00000000    0.00000000
     atom   40 type  2   force =     0.00000000    0.00000000    0.00000000
     atom   41 type  2   force =     0.00000000    0.00000000    0.00000000
     atom   42 type  2   force =     0.00000000    0.00000000    0.00000000
     atom   43 type  2   force =     0.00000000    0.00000000    0.00000000
     atom   44 type  2   force =     0.00000000    0.00000000    0.00000000
     atom   45 type  2   force =     0.00000000    0.00000000    0.00000000
     atom   46 type  2   force =     0.00000000    0.00000000    0.00000000
     atom   47 type  2   force =     0.00000000    0.00000000    0.00000000
     atom   48 type  2   force =     0.00000000    0.00000000    0.00000000
     atom   49 type  3   force =     0.00000000    0.00000000    0.00000000
     atom   50 type  3   force =     0.00000000    0.00000000    0.00000000
     atom   51 type  3   force =     0.00000000    0.00000000    0.00000000
     atom   52 type  3   force =     0.00000000    0.00000000    0.00000000
     atom   53 type  4   force =    -0.00000001   -0.03314796   -0.00000001
     atom   54 type  4   force =    -0.00000001    0.03314795   -0.00000000
     atom   55 type  4   force =     0.03161521    0.00461094   -0.00988895
     atom   56 type  4   force =     0.03161519   -0.00461092   -0.00988897
     atom   57 type  4   force =    -0.03161520    0.00461091    0.00988895
     atom   58 type  4   force =    -0.03161521   -0.00461091    0.00988898
     atom   59 type  4   force =     0.02141316    0.00964007   -0.02165229
     atom   60 type  4   force =     0.02141320   -0.00964007   -0.02165229
     atom   61 type  4   force =    -0.02141318    0.00964007    0.02165228
     atom   62 type  4   force =    -0.02141318   -0.00964008    0.02165231
     atom   63 type  4   force =    -0.01048119   -0.01150689   -0.02943952
     atom   64 type  4   force =    -0.01048117    0.01150686   -0.02943952
     atom   65 type  4   force =     0.01048119   -0.01150688    0.02943949
     atom   66 type  4   force =     0.01048116    0.01150687    0.02943952
     atom   67 type  4   force =     0.03475987    0.00872903    0.00125282
     atom   68 type  4   force =     0.03475986   -0.00872902    0.00125282
     atom   69 type  4   force =    -0.03475986    0.00872901   -0.00125280
     atom   70 type  4   force =    -0.03475987   -0.00872901   -0.00125283
     atom   71 type  4   force =    -0.03171494    0.00190211   -0.02017570
     atom   72 type  4   force =    -0.03171493   -0.00190212   -0.02017571
     atom   73 type  4   force =     0.03171495    0.00190212    0.02017570
     atom   74 type  4   force =     0.03171493   -0.00190211    0.02017570
     atom   75 type  4   force =    -0.02621699   -0.01920496    0.00689696
     atom   76 type  4   force =    -0.02621699    0.01920495    0.00689696
     atom   77 type  4   force =     0.02621700   -0.01920494   -0.00689696
     atom   78 type  4   force =     0.02621699    0.01920495   -0.00689696
     atom   79 type  4   force =    -0.01872661    0.00423640    0.03502193
     atom   80 type  4   force =    -0.01872664   -0.00423640    0.03502194
     atom   81 type  4   force =     0.01872660    0.00423639   -0.03502194
     atom   82 type  4   force =     0.01872661   -0.00423639   -0.03502194
     atom   83 type  4   force =     0.01104969    0.01999694    0.03210960
     atom   84 type  4   force =     0.01104969   -0.01999694    0.03210960
     atom   85 type  4   force =    -0.01104969    0.01999694   -0.03210962
     atom   86 type  4   force =    -0.01104969   -0.01999694   -0.03210961
     The Hubbard contrib.    to forces
     atom    1 type  1   force =     0.00000000    0.00000000    0.00000000
     atom    2 type  1   force =     0.00000000    0.00000000    0.00000000
     atom    3 type  1   force =     0.00000000    0.00000000    0.00000000
     atom    4 type  1   force =     0.00000000    0.00000000    0.00000000
     atom    5 type  1   force =     0.00000000    0.00000000    0.00000000
     atom    6 type  1   force =     0.00000000    0.00000000    0.00000000
     atom    7 type  1   force =     0.00000000    0.00000000    0.00000000
     atom    8 type  1   force =     0.00000000    0.00000000    0.00000000
     atom    9 type  2   force =     0.00000000    0.00000000    0.00000000
     atom   10 type  2   force =     0.00000000    0.00000000    0.00000000
     atom   11 type  2   force =     0.00000000    0.00000000    0.00000000
     atom   12 type  2   force =     0.00000000    0.00000000    0.00000000
     atom   13 type  2   force =     0.00000000    0.00000000    0.00000000
     atom   14 type  2   force =     0.00000000    0.00000000    0.00000000
     atom   15 type  2   force =     0.00000000    0.00000000    0.00000000
     atom   16 type  2   force =     0.00000000    0.00000000    0.00000000
     atom   17 type  2   force =     0.00000000    0.00000000    0.00000000
     atom   18 type  2   force =     0.00000000    0.00000000    0.00000000
     atom   19 type  2   force =     0.00000000    0.00000000    0.00000000
     atom   20 type  2   force =     0.00000000    0.00000000    0.00000000
     atom   21 type  2   force =     0.00000000    0.00000000    0.00000000
     atom   22 type  2   force =     0.00000000    0.00000000    0.00000000
     atom   23 type  2   force =     0.00000000    0.00000000    0.00000000
     atom   24 type  2   force =     0.00000000    0.00000000    0.00000000
     atom   25 type  2   force =     0.00000000    0.00000000    0.00000000
     atom   26 type  2   force =     0.00000000    0.00000000    0.00000000
     atom   27 type  2   force =     0.00000000    0.00000000    0.00000000
     atom   28 type  2   force =     0.00000000    0.00000000    0.00000000
     atom   29 type  2   force =     0.00000000    0.00000000    0.00000000
     atom   30 type  2   force =     0.00000000    0.00000000    0.00000000
     atom   31 type  2   force =     0.00000000    0.00000000    0.00000000
     atom   32 type  2   force =     0.00000000    0.00000000    0.00000000
     atom   33 type  2   force =     0.00000000    0.00000000    0.00000000
     atom   34 type  2   force =     0.00000000    0.00000000    0.00000000
     atom   35 type  2   force =     0.00000000    0.00000000    0.00000000
     atom   36 type  2   force =     0.00000000    0.00000000    0.00000000
     atom   37 type  2   force =     0.00000000    0.00000000    0.00000000
     atom   38 type  2   force =     0.00000000    0.00000000    0.00000000
     atom   39 type  2   force =     0.00000000    0.00000000    0.00000000
     atom   40 type  2   force =     0.00000000    0.00000000    0.00000000
     atom   41 type  2   force =     0.00000000    0.00000000    0.00000000
     atom   42 type  2   force =     0.00000000    0.00000000    0.00000000
     atom   43 type  2   force =     0.00000000    0.00000000    0.00000000
     atom   44 type  2   force =     0.00000000    0.00000000    0.00000000
     atom   45 type  2   force =     0.00000000    0.00000000    0.00000000
     atom   46 type  2   force =     0.00000000    0.00000000    0.00000000
     atom   47 type  2   force =     0.00000000    0.00000000    0.00000000
     atom   48 type  2   force =     0.00000000    0.00000000    0.00000000
     atom   49 type  3   force =     0.00000000    0.00000000    0.00000000
     atom   50 type  3   force =     0.00000000    0.00000000    0.00000000
     atom   51 type  3   force =     0.00000000    0.00000000    0.00000000
     atom   52 type  3   force =     0.00000000    0.00000000    0.00000000
     atom   53 type  4   force =     0.00000000    0.00000000    0.00000000
     atom   54 type  4   force =     0.00000000    0.00000000    0.00000000
     atom   55 type  4   force =     0.00000000    0.00000000    0.00000000
     atom   56 type  4   force =     0.00000000    0.00000000    0.00000000
     atom   57 type  4   force =     0.00000000    0.00000000    0.00000000
     atom   58 type  4   force =     0.00000000    0.00000000    0.00000000
     atom   59 type  4   force =     0.00000000    0.00000000    0.00000000
     atom   60 type  4   force =     0.00000000    0.00000000    0.00000000
     atom   61 type  4   force =     0.00000000    0.00000000    0.00000000
     atom   62 type  4   force =     0.00000000    0.00000000    0.00000000
     atom   63 type  4   force =     0.00000000    0.00000000    0.00000000
     atom   64 type  4   force =     0.00000000    0.00000000    0.00000000
     atom   65 type  4   force =     0.00000000    0.00000000    0.00000000
     atom   66 type  4   force =     0.00000000    0.00000000    0.00000000
     atom   67 type  4   force =     0.00000000    0.00000000    0.00000000
     atom   68 type  4   force =     0.00000000    0.00000000    0.00000000
     atom   69 type  4   force =     0.00000000    0.00000000    0.00000000
     atom   70 type  4   force =     0.00000000    0.00000000    0.00000000
     atom   71 type  4   force =     0.00000000    0.00000000    0.00000000
     atom   72 type  4   force =     0.00000000    0.00000000    0.00000000
     atom   73 type  4   force =     0.00000000    0.00000000    0.00000000
     atom   74 type  4   force =     0.00000000    0.00000000    0.00000000
     atom   75 type  4   force =     0.00000000    0.00000000    0.00000000
     atom   76 type  4   force =     0.00000000    0.00000000    0.00000000
     atom   77 type  4   force =     0.00000000    0.00000000    0.00000000
     atom   78 type  4   force =     0.00000000    0.00000000    0.00000000
     atom   79 type  4   force =     0.00000000    0.00000000    0.00000000
     atom   80 type  4   force =     0.00000000    0.00000000    0.00000000
     atom   81 type  4   force =     0.00000000    0.00000000    0.00000000
     atom   82 type  4   force =     0.00000000    0.00000000    0.00000000
     atom   83 type  4   force =     0.00000000    0.00000000    0.00000000
     atom   84 type  4   force =     0.00000000    0.00000000    0.00000000
     atom   85 type  4   force =     0.00000000    0.00000000    0.00000000
     atom   86 type  4   force =     0.00000000    0.00000000    0.00000000
     The SCF correction term to forces
     atom    1 type  1   force =    -0.00000125   -0.00000040    0.00000185
     atom    2 type  1   force =    -0.00000094    0.00000026    0.00000182
     atom    3 type  1   force =     0.00000101   -0.00000025   -0.00000214
     atom    4 type  1   force =     0.00000086    0.00000046   -0.00000182
     atom    5 type  1   force =    -0.00000157    0.00000006   -0.00000048
     atom    6 type  1   force =    -0.00000097   -0.00000002   -0.00000045
     atom    7 type  1   force =     0.00000123   -0.00000014    0.00000066
     atom    8 type  1   force =     0.00000144   -0.00000002    0.00000029
     atom    9 type  2   force =     0.00000135    0.00000027   -0.00000010
     atom   10 type  2   force =     0.00000137   -0.00000027   -0.00000009
     atom   11 type  2   force =    -0.00000134    0.00000023    0.00000010
     atom   12 type  2   force =    -0.00000138   -0.00000025    0.00000008
     atom   13 type  2   force =    -0.00000082    0.00000034   -0.00000068
     atom   14 type  2   force =    -0.00000089   -0.00000030   -0.00000061
     atom   15 type  2   force =     0.00000082    0.00000032    0.00000060
     atom   16 type  2   force =     0.00000081   -0.00000035    0.00000070
     atom   17 type  2   force =     0.00000022   -0.00000048   -0.00000055
     atom   18 type  2   force =     0.00000041    0.00000057   -0.00000055
     atom   19 type  2   force =    -0.00000031   -0.00000054    0.00000053
     atom   20 type  2   force =    -0.00000027    0.00000050    0.00000055
     atom   21 type  2   force =    -0.00000041   -0.00000037    0.00000043
     atom   22 type  2   force =    -0.00000043    0.00000027    0.00000027
     atom   23 type  2   force =     0.00000042   -0.00000030   -0.00000031
     atom   24 type  2   force =     0.00000044    0.00000032   -0.00000037
     atom   25 type  2   force =    -0.00000060    0.00000055    0.00000020
     atom   26 type  2   force =    -0.00000049   -0.00000052    0.00000021
     atom   27 type  2   force =     0.00000067    0.00000048   -0.00000024
     atom   28 type  2   force =     0.00000067   -0.00000050   -0.00000023
     atom   29 type  2   force =     0.00000058    0.00000022   -0.00000016
     atom   30 type  2   force =     0.00000060   -0.00000027   -0.00000015
     atom   31 type  2   force =    -0.00000059    0.00000021    0.00000013
     atom   32 type  2   force =    -0.00000056   -0.00000009    0.00000018
     atom   33 type  2   force =    -0.00000008    0.00000028   -0.00000003
     atom   34 type  2   force =    -0.00000008   -0.00000023   -0.00000009
     atom   35 type  2   force =     0.00000003    0.00000026   -0.00000004
     atom   36 type  2   force =     0.00000005   -0.00000025    0.00000003
     atom   37 type  2   force =     0.00000065    0.00000029   -0.00000009
     atom   38 type  2   force =     0.00000072   -0.00000030   -0.00000012
     atom   39 type  2   force =    -0.00000060    0.00000024    0.00000006
     atom   40 type  2   force =    -0.00000063   -0.00000028    0.00000013
     atom   41 type  2   force =     0.00000021   -0.00000071    0.00000028
     atom   42 type  2   force =     0.00000015    0.00000050    0.00000030
     atom   43 type  2   force =    -0.00000015   -0.00000040   -0.00000022
     atom   44 type  2   force =    -0.00000015    0.00000045   -0.00000025
     atom   45 type  2   force =     0.00000036   -0.00000065    0.00000023
     atom   46 type  2   force =     0.00000034    0.00000067    0.00000021
     atom   47 type  2   force =    -0.00000030   -0.00000063    0.00000004
     atom   48 type  2   force =    -0.00000034    0.00000064   -0.00000009
     atom   49 type  3   force =     0.00000012    0.00000030    0.00000000
     atom   50 type  3   force =    -0.00000010    0.00000014    0.00000016
     atom   51 type  3   force =     0.00000024   -0.00000420   -0.00000030
     atom   52 type  3   force =     0.00000017    0.00000432    0.00000015
     atom   53 type  4   force =    -0.00000078   -0.00000009    0.00000008
     atom   54 type  4   force =    -0.00000002    0.00000023    0.00000021
     atom   55 type  4   force =    -0.00000016   -0.00000110   -0.00000214
     atom   56 type  4   force =     0.00000058    0.00000116   -0.00000177
     atom   57 type  4   force =     0.00000026   -0.00000101    0.00000137
     atom   58 type  4   force =     0.00000003    0.00000135    0.00000235
     atom   59 type  4   force =    -0.00000514   -0.00000086   -0.00000390
     atom   60 type  4   force =    -0.00000407    0.00000036   -0.00000464
     atom   61 type  4   force =     0.00000413   -0.00000033    0.00000365
     atom   62 type  4   force =     0.00000418    0.00000063    0.00000406
     atom   63 type  4   force =    -0.00000370    0.00000675    0.00000620
     atom   64 type  4   force =    -0.00000372   -0.00000674    0.00000572
     atom   65 type  4   force =     0.00000350    0.00000705   -0.00000627
     atom   66 type  4   force =     0.00000334   -0.00000725   -0.00000623
     atom   67 type  4   force =    -0.00000855    0.00000032   -0.00000670
     atom   68 type  4   force =    -0.00000833    0.00000013   -0.00000720
     atom   69 type  4   force =     0.00000866   -0.00000022    0.00000706
     atom   70 type  4   force =     0.00000859   -0.00000028    0.00000635
     atom   71 type  4   force =     0.00000760    0.00000090    0.00000408
     atom   72 type  4   force =     0.00000717   -0.00000098    0.00000424
     atom   73 type  4   force =    -0.00000722    0.00000076   -0.00000421
     atom   74 type  4   force =    -0.00000726   -0.00000118   -0.00000411
     atom   75 type  4   force =     0.00000581    0.00000428   -0.00000434
     atom   76 type  4   force =     0.00000585   -0.00000457   -0.00000420
     atom   77 type  4   force =    -0.00000591    0.00000463    0.00000395
     atom   78 type  4   force =    -0.00000562   -0.00000426    0.00000431
     atom   79 type  4   force =    -0.00000274   -0.00000603   -0.00000150
     atom   80 type  4   force =    -0.00000251    0.00000605   -0.00000148
     atom   81 type  4   force =     0.00000262   -0.00000582    0.00000154
     atom   82 type  4   force =     0.00000276    0.00000595    0.00000149
     atom   83 type  4   force =     0.00000076    0.00000250   -0.00000343
     atom   84 type  4   force =     0.00000090   -0.00000244   -0.00000363
     atom   85 type  4   force =    -0.00000058    0.00000192    0.00000370
     atom   86 type  4   force =    -0.00000089   -0.00000254    0.00000418

     Total force =     3.240327     Total SCF correction =     0.000044


     Computing stress (Cartesian axis) and pressure

 NFL =         8236
 NFL =         8236
 NFL =         8236
 NFL =         8236
 SDEWALD = %12.6f   0.0000000000000000     
          total   stress  (Ry/bohr**3)                   (kbar)     P=      226.33
   0.00177731   0.00000000  -0.00012213          261.45        0.00      -17.97
   0.00000000   0.00146118   0.00000000            0.00      214.95        0.00
  -0.00012213   0.00000000   0.00137714          -17.97        0.00      202.58

     kinetic stress (kbar)  21438.10     -0.00     85.04
                                0.00  21831.62     -0.00
                               85.04     -0.00  21676.07

     local   stress (kbar) -10307.05     -0.00    966.64
                               -0.00  -4612.54     -0.00
                              966.64     -0.00 -10555.38

     nonloc. stress (kbar)  -8100.37      0.00     -5.76
                               -0.00  -8118.63      0.00
                               -5.76      0.00  -8119.94

     hartree stress (kbar)   6976.17      0.00   -316.01
                                0.00   5055.43      0.00
                             -316.01      0.00   7324.10

     exc-cor stress (kbar)  -2033.57      0.00     -2.12
                                0.00  -2046.54      0.00
                               -2.12      0.00  -2037.66

     corecor stress (kbar)  -1501.37     -0.00      0.14
                               -0.00  -1500.64      0.00
                                0.14      0.00  -1502.09

     ewald   stress (kbar)  -6210.46     -0.00   -745.90
                               -0.00 -10393.76      0.00
                             -745.90      0.00  -6582.51

     hubbard stress (kbar)      0.00      0.00      0.00
                                0.00      0.00      0.00
                                0.00      0.00      0.00

     DFT-D   stress (kbar)      0.00      0.00      0.00
                                0.00      0.00      0.00
                                0.00      0.00      0.00

     XDM     stress (kbar)      0.00      0.00      0.00
                                0.00      0.00      0.00
                                0.00      0.00      0.00

     dft-nl  stress (kbar)      0.00      0.00      0.00
                                0.00      0.00      0.00
                                0.00      0.00      0.00

     TS-vdW  stress (kbar)      0.00      0.00      0.00
                                0.00      0.00      0.00
                                0.00      0.00      0.00


                                0.00      0.00      0.00
                                0.00      0.00      0.00


                                0.00      0.00      0.00


     Writing all to output data dir ./out/aiida.save/

     init_run     :      1.42s CPU      1.47s WALL (       1 calls)
     electrons    :      7.16s CPU      7.54s WALL (       1 calls)
     forces       :      0.85s CPU      0.88s WALL (       1 calls)
     stress       :      4.03s CPU      4.04s WALL (       1 calls)

     Called by init_run:
     wfcinit      :      0.21s CPU      0.25s WALL (       1 calls)
     wfcinit:atom :      0.00s CPU      0.00s WALL (       1 calls)
     wfcinit:wfcr :      0.20s CPU      0.23s WALL (       1 calls)
     potinit      :      0.48s CPU      0.48s WALL (       1 calls)
     hinit0       :      0.71s CPU      0.71s WALL (       1 calls)

     Called by electrons:
     c_bands      :      6.33s CPU      6.65s WALL (      11 calls)
     sum_band     :      0.61s CPU      0.64s WALL (      11 calls)
     v_of_rho     :      0.18s CPU      0.21s WALL (      12 calls)
     v_h          :      0.02s CPU      0.02s WALL (      12 calls)
     v_xc         :      0.19s CPU      0.22s WALL (      14 calls)
     mix_rho      :      0.03s CPU      0.04s WALL (      11 calls)

     Called by c_bands:
     init_us_2    :      0.21s CPU      0.22s WALL (      23 calls)
     init_us_2:cp :      0.21s CPU      0.22s WALL (      23 calls)
     regterg      :      6.08s CPU      6.39s WALL (      11 calls)

     Called by sum_band:
     sum_band:wei :      0.00s CPU      0.00s WALL (      11 calls)
     sum_band:loo :      0.59s CPU      0.61s WALL (      11 calls)
     sum_band:buf :      0.00s CPU      0.00s WALL (      11 calls)
     sum_band:ini :      0.10s CPU      0.10s WALL (      11 calls)

     Called by *egterg:
     rdiaghg      :      1.27s CPU      1.27s WALL (      61 calls)
     regterg:over :      0.32s CPU      0.33s WALL (      50 calls)
     regterg:upda :      0.23s CPU      0.23s WALL (      50 calls)
     regterg:last :      0.31s CPU      0.31s WALL (      24 calls)
     h_psi        :      3.84s CPU      4.10s WALL (      62 calls)
     g_psi        :      0.01s CPU      0.01s WALL (      50 calls)

     Called by h_psi:
     h_psi:calbec :      0.64s CPU      0.66s WALL (      62 calls)
     vloc_psi     :      2.59s CPU      2.81s WALL (      62 calls)
     add_vuspsi   :      0.56s CPU      0.57s WALL (      62 calls)

     General routines
     calbec       :      0.72s CPU      0.75s WALL (      67 calls)
     fft          :      0.18s CPU      0.19s WALL (     115 calls)
     ffts         :      0.01s CPU      0.01s WALL (      11 calls)
     fftw         :      2.92s CPU      3.16s WALL (    6509 calls)

     Parallel routines

     PWSCF        :     13.59s CPU     14.11s WALL


   This run was terminated on:  16:20:46  21Sep2022            

=------------------------------------------------------------------------------=
   JOB DONE.
=------------------------------------------------------------------------------=
